+ 0.5 0 1 tcp 40 ------- 0 0.0 2.0 0 0
- 0.5 0 1 tcp 40 ------- 0 0.0 2.0 0 0
r 0.550003 0 1 tcp 40 ------- 0 0.0 2.0 0 0
+ 0.550003 1 2 tcp 40 ------- 0 0.0 2.0 0 0
- 0.550003 1 2 tcp 40 ------- 0 0.0 2.0 0 0
r 0.554203 1 2 tcp 40 ------- 0 0.0 2.0 0 0
+ 0.554203 2 1 ack 40 ------- 0 2.0 0.0 0 1
- 0.554203 2 1 ack 40 ------- 0 2.0 0.0 0 1
r 0.558403 2 1 ack 40 ------- 0 2.0 0.0 0 1
+ 0.558403 1 0 ack 40 ------- 0 2.0 0.0 0 1
- 0.558403 1 0 ack 40 ------- 0 2.0 0.0 0 1
r 0.608406 1 0 ack 40 ------- 0 2.0 0.0 0 1
+ 0.608406 0 1 tcp 1080 ------- 0 0.0 2.0 1 2
- 0.608406 0 1 tcp 1080 ------- 0 0.0 2.0 1 2
+ 0.608406 0 1 tcp 1080 ------- 0 0.0 2.0 2 3
- 0.608493 0 1 tcp 1080 ------- 0 0.0 2.0 2 3
r 0.658493 0 1 tcp 1080 ------- 0 0.0 2.0 1 2
+ 0.658493 1 2 tcp 1080 ------- 0 0.0 2.0 1 2
- 0.658493 1 2 tcp 1080 ------- 0 0.0 2.0 1 2
r 0.658579 0 1 tcp 1080 ------- 0 0.0 2.0 2 3
+ 0.658579 1 2 tcp 1080 ------- 0 0.0 2.0 2 3
- 0.744893 1 2 tcp 1080 ------- 0 0.0 2.0 2 3
r 0.745893 1 2 tcp 1080 ------- 0 0.0 2.0 1 2
+ 0.745893 2 1 ack 40 ------- 0 2.0 0.0 1 4
- 0.745893 2 1 ack 40 ------- 0 2.0 0.0 1 4
r 0.750093 2 1 ack 40 ------- 0 2.0 0.0 1 4
+ 0.750093 1 0 ack 40 ------- 0 2.0 0.0 1 4
- 0.750093 1 0 ack 40 ------- 0 2.0 0.0 1 4
r 0.800096 1 0 ack 40 ------- 0 2.0 0.0 1 4
+ 0.800096 0 1 tcp 1080 ------- 0 0.0 2.0 3 5
- 0.800096 0 1 tcp 1080 ------- 0 0.0 2.0 3 5
+ 0.800096 0 1 tcp 1080 ------- 0 0.0 2.0 4 6
- 0.800182 0 1 tcp 1080 ------- 0 0.0 2.0 4 6
r 0.832293 1 2 tcp 1080 ------- 0 0.0 2.0 2 3
+ 0.832293 2 1 ack 40 ------- 0 2.0 0.0 2 7
- 0.832293 2 1 ack 40 ------- 0 2.0 0.0 2 7
r 0.836493 2 1 ack 40 ------- 0 2.0 0.0 2 7
+ 0.836493 1 0 ack 40 ------- 0 2.0 0.0 2 7
- 0.836493 1 0 ack 40 ------- 0 2.0 0.0 2 7
r 0.850182 0 1 tcp 1080 ------- 0 0.0 2.0 3 5
+ 0.850182 1 2 tcp 1080 ------- 0 0.0 2.0 3 5
- 0.850182 1 2 tcp 1080 ------- 0 0.0 2.0 3 5
r 0.850269 0 1 tcp 1080 ------- 0 0.0 2.0 4 6
+ 0.850269 1 2 tcp 1080 ------- 0 0.0 2.0 4 6
r 0.886496 1 0 ack 40 ------- 0 2.0 0.0 2 7
+ 0.886496 0 1 tcp 1080 ------- 0 0.0 2.0 5 8
- 0.886496 0 1 tcp 1080 ------- 0 0.0 2.0 5 8
+ 0.886496 0 1 tcp 1080 ------- 0 0.0 2.0 6 9
- 0.886582 0 1 tcp 1080 ------- 0 0.0 2.0 6 9
- 0.936582 1 2 tcp 1080 ------- 0 0.0 2.0 4 6
r 0.936582 0 1 tcp 1080 ------- 0 0.0 2.0 5 8
+ 0.936582 1 2 tcp 1080 ------- 0 0.0 2.0 5 8
r 0.936669 0 1 tcp 1080 ------- 0 0.0 2.0 6 9
+ 0.936669 1 2 tcp 1080 ------- 0 0.0 2.0 6 9
r 0.937582 1 2 tcp 1080 ------- 0 0.0 2.0 3 5
+ 0.937582 2 1 ack 40 ------- 0 2.0 0.0 3 10
- 0.937582 2 1 ack 40 ------- 0 2.0 0.0 3 10
r 0.941782 2 1 ack 40 ------- 0 2.0 0.0 3 10
+ 0.941782 1 0 ack 40 ------- 0 2.0 0.0 3 10
- 0.941782 1 0 ack 40 ------- 0 2.0 0.0 3 10
r 0.991786 1 0 ack 40 ------- 0 2.0 0.0 3 10
+ 0.991786 0 1 tcp 1080 ------- 0 0.0 2.0 7 11
- 0.991786 0 1 tcp 1080 ------- 0 0.0 2.0 7 11
+ 0.991786 0 1 tcp 1080 ------- 0 0.0 2.0 8 12
- 0.991872 0 1 tcp 1080 ------- 0 0.0 2.0 8 12
- 1.022982 1 2 tcp 1080 ------- 0 0.0 2.0 5 8
r 1.023982 1 2 tcp 1080 ------- 0 0.0 2.0 4 6
+ 1.023982 2 1 ack 40 ------- 0 2.0 0.0 4 13
- 1.023982 2 1 ack 40 ------- 0 2.0 0.0 4 13
r 1.028182 2 1 ack 40 ------- 0 2.0 0.0 4 13
+ 1.028182 1 0 ack 40 ------- 0 2.0 0.0 4 13
- 1.028182 1 0 ack 40 ------- 0 2.0 0.0 4 13
r 1.041872 0 1 tcp 1080 ------- 0 0.0 2.0 7 11
+ 1.041872 1 2 tcp 1080 ------- 0 0.0 2.0 7 11
r 1.041958 0 1 tcp 1080 ------- 0 0.0 2.0 8 12
+ 1.041958 1 2 tcp 1080 ------- 0 0.0 2.0 8 12
r 1.078186 1 0 ack 40 ------- 0 2.0 0.0 4 13
+ 1.078186 0 1 tcp 1080 ------- 0 0.0 2.0 9 14
- 1.078186 0 1 tcp 1080 ------- 0 0.0 2.0 9 14
+ 1.078186 0 1 tcp 1080 ------- 0 0.0 2.0 10 15
- 1.078272 0 1 tcp 1080 ------- 0 0.0 2.0 10 15
- 1.109382 1 2 tcp 1080 ------- 0 0.0 2.0 6 9
r 1.110382 1 2 tcp 1080 ------- 0 0.0 2.0 5 8
+ 1.110382 2 1 ack 40 ------- 0 2.0 0.0 5 16
- 1.110382 2 1 ack 40 ------- 0 2.0 0.0 5 16
r 1.114582 2 1 ack 40 ------- 0 2.0 0.0 5 16
+ 1.114582 1 0 ack 40 ------- 0 2.0 0.0 5 16
- 1.114582 1 0 ack 40 ------- 0 2.0 0.0 5 16
r 1.128272 0 1 tcp 1080 ------- 0 0.0 2.0 9 14
+ 1.128272 1 2 tcp 1080 ------- 0 0.0 2.0 9 14
r 1.128358 0 1 tcp 1080 ------- 0 0.0 2.0 10 15
+ 1.128358 1 2 tcp 1080 ------- 0 0.0 2.0 10 15
r 1.164586 1 0 ack 40 ------- 0 2.0 0.0 5 16
+ 1.164586 0 1 tcp 1080 ------- 0 0.0 2.0 11 17
- 1.164586 0 1 tcp 1080 ------- 0 0.0 2.0 11 17
+ 1.164586 0 1 tcp 1080 ------- 0 0.0 2.0 12 18
- 1.164672 0 1 tcp 1080 ------- 0 0.0 2.0 12 18
- 1.195782 1 2 tcp 1080 ------- 0 0.0 2.0 7 11
r 1.196782 1 2 tcp 1080 ------- 0 0.0 2.0 6 9
+ 1.196782 2 1 ack 40 ------- 0 2.0 0.0 6 19
- 1.196782 2 1 ack 40 ------- 0 2.0 0.0 6 19
r 1.200982 2 1 ack 40 ------- 0 2.0 0.0 6 19
+ 1.200982 1 0 ack 40 ------- 0 2.0 0.0 6 19
- 1.200982 1 0 ack 40 ------- 0 2.0 0.0 6 19
r 1.214672 0 1 tcp 1080 ------- 0 0.0 2.0 11 17
+ 1.214672 1 2 tcp 1080 ------- 0 0.0 2.0 11 17
r 1.214758 0 1 tcp 1080 ------- 0 0.0 2.0 12 18
+ 1.214758 1 2 tcp 1080 ------- 0 0.0 2.0 12 18
r 1.250986 1 0 ack 40 ------- 0 2.0 0.0 6 19
+ 1.250986 0 1 tcp 1080 ------- 0 0.0 2.0 13 20
- 1.250986 0 1 tcp 1080 ------- 0 0.0 2.0 13 20
+ 1.250986 0 1 tcp 1080 ------- 0 0.0 2.0 14 21
- 1.251072 0 1 tcp 1080 ------- 0 0.0 2.0 14 21
- 1.282182 1 2 tcp 1080 ------- 0 0.0 2.0 8 12
r 1.283182 1 2 tcp 1080 ------- 0 0.0 2.0 7 11
+ 1.283182 2 1 ack 40 ------- 0 2.0 0.0 7 22
- 1.283182 2 1 ack 40 ------- 0 2.0 0.0 7 22
r 1.287382 2 1 ack 40 ------- 0 2.0 0.0 7 22
+ 1.287382 1 0 ack 40 ------- 0 2.0 0.0 7 22
- 1.287382 1 0 ack 40 ------- 0 2.0 0.0 7 22
r 1.301072 0 1 tcp 1080 ------- 0 0.0 2.0 13 20
+ 1.301072 1 2 tcp 1080 ------- 0 0.0 2.0 13 20
r 1.301158 0 1 tcp 1080 ------- 0 0.0 2.0 14 21
+ 1.301158 1 2 tcp 1080 ------- 0 0.0 2.0 14 21
r 1.337386 1 0 ack 40 ------- 0 2.0 0.0 7 22
+ 1.337386 0 1 tcp 1080 ------- 0 0.0 2.0 15 23
- 1.337386 0 1 tcp 1080 ------- 0 0.0 2.0 15 23
+ 1.337386 0 1 tcp 1080 ------- 0 0.0 2.0 16 24
- 1.337472 0 1 tcp 1080 ------- 0 0.0 2.0 16 24
- 1.368582 1 2 tcp 1080 ------- 0 0.0 2.0 9 14
r 1.369582 1 2 tcp 1080 ------- 0 0.0 2.0 8 12
+ 1.369582 2 1 ack 40 ------- 0 2.0 0.0 8 25
- 1.369582 2 1 ack 40 ------- 0 2.0 0.0 8 25
r 1.373782 2 1 ack 40 ------- 0 2.0 0.0 8 25
+ 1.373782 1 0 ack 40 ------- 0 2.0 0.0 8 25
- 1.373782 1 0 ack 40 ------- 0 2.0 0.0 8 25
r 1.387472 0 1 tcp 1080 ------- 0 0.0 2.0 15 23
+ 1.387472 1 2 tcp 1080 ------- 0 0.0 2.0 15 23
r 1.387558 0 1 tcp 1080 ------- 0 0.0 2.0 16 24
+ 1.387558 1 2 tcp 1080 ------- 0 0.0 2.0 16 24
r 1.423786 1 0 ack 40 ------- 0 2.0 0.0 8 25
+ 1.423786 0 1 tcp 1080 ------- 0 0.0 2.0 17 26
- 1.423786 0 1 tcp 1080 ------- 0 0.0 2.0 17 26
+ 1.423786 0 1 tcp 1080 ------- 0 0.0 2.0 18 27
- 1.423872 0 1 tcp 1080 ------- 0 0.0 2.0 18 27
- 1.454982 1 2 tcp 1080 ------- 0 0.0 2.0 10 15
r 1.455982 1 2 tcp 1080 ------- 0 0.0 2.0 9 14
+ 1.455982 2 1 ack 40 ------- 0 2.0 0.0 9 28
- 1.455982 2 1 ack 40 ------- 0 2.0 0.0 9 28
r 1.460182 2 1 ack 40 ------- 0 2.0 0.0 9 28
+ 1.460182 1 0 ack 40 ------- 0 2.0 0.0 9 28
- 1.460182 1 0 ack 40 ------- 0 2.0 0.0 9 28
r 1.473872 0 1 tcp 1080 ------- 0 0.0 2.0 17 26
+ 1.473872 1 2 tcp 1080 ------- 0 0.0 2.0 17 26
r 1.473958 0 1 tcp 1080 ------- 0 0.0 2.0 18 27
+ 1.473958 1 2 tcp 1080 ------- 0 0.0 2.0 18 27
r 1.510186 1 0 ack 40 ------- 0 2.0 0.0 9 28
+ 1.510186 0 1 tcp 1080 ------- 0 0.0 2.0 19 29
- 1.510186 0 1 tcp 1080 ------- 0 0.0 2.0 19 29
+ 1.510186 0 1 tcp 1080 ------- 0 0.0 2.0 20 30
- 1.510272 0 1 tcp 1080 ------- 0 0.0 2.0 20 30
- 1.541382 1 2 tcp 1080 ------- 0 0.0 2.0 11 17
r 1.542382 1 2 tcp 1080 ------- 0 0.0 2.0 10 15
+ 1.542382 2 1 ack 40 ------- 0 2.0 0.0 10 31
- 1.542382 2 1 ack 40 ------- 0 2.0 0.0 10 31
r 1.546582 2 1 ack 40 ------- 0 2.0 0.0 10 31
+ 1.546582 1 0 ack 40 ------- 0 2.0 0.0 10 31
- 1.546582 1 0 ack 40 ------- 0 2.0 0.0 10 31
r 1.560272 0 1 tcp 1080 ------- 0 0.0 2.0 19 29
+ 1.560272 1 2 tcp 1080 ------- 0 0.0 2.0 19 29
r 1.560358 0 1 tcp 1080 ------- 0 0.0 2.0 20 30
+ 1.560358 1 2 tcp 1080 ------- 0 0.0 2.0 20 30
r 1.596586 1 0 ack 40 ------- 0 2.0 0.0 10 31
+ 1.596586 0 1 tcp 1080 ------- 0 0.0 2.0 21 32
- 1.596586 0 1 tcp 1080 ------- 0 0.0 2.0 21 32
+ 1.596586 0 1 tcp 1080 ------- 0 0.0 2.0 22 33
- 1.596672 0 1 tcp 1080 ------- 0 0.0 2.0 22 33
- 1.627782 1 2 tcp 1080 ------- 0 0.0 2.0 12 18
r 1.628782 1 2 tcp 1080 ------- 0 0.0 2.0 11 17
+ 1.628782 2 1 ack 40 ------- 0 2.0 0.0 11 34
- 1.628782 2 1 ack 40 ------- 0 2.0 0.0 11 34
r 1.632982 2 1 ack 40 ------- 0 2.0 0.0 11 34
+ 1.632982 1 0 ack 40 ------- 0 2.0 0.0 11 34
- 1.632982 1 0 ack 40 ------- 0 2.0 0.0 11 34
r 1.646672 0 1 tcp 1080 ------- 0 0.0 2.0 21 32
+ 1.646672 1 2 tcp 1080 ------- 0 0.0 2.0 21 32
r 1.646758 0 1 tcp 1080 ------- 0 0.0 2.0 22 33
+ 1.646758 1 2 tcp 1080 ------- 0 0.0 2.0 22 33
r 1.682986 1 0 ack 40 ------- 0 2.0 0.0 11 34
+ 1.682986 0 1 tcp 1080 ------- 0 0.0 2.0 23 35
- 1.682986 0 1 tcp 1080 ------- 0 0.0 2.0 23 35
+ 1.682986 0 1 tcp 1080 ------- 0 0.0 2.0 24 36
- 1.683072 0 1 tcp 1080 ------- 0 0.0 2.0 24 36
- 1.714182 1 2 tcp 1080 ------- 0 0.0 2.0 13 20
r 1.715182 1 2 tcp 1080 ------- 0 0.0 2.0 12 18
+ 1.715182 2 1 ack 40 ------- 0 2.0 0.0 12 37
- 1.715182 2 1 ack 40 ------- 0 2.0 0.0 12 37
r 1.719382 2 1 ack 40 ------- 0 2.0 0.0 12 37
+ 1.719382 1 0 ack 40 ------- 0 2.0 0.0 12 37
- 1.719382 1 0 ack 40 ------- 0 2.0 0.0 12 37
r 1.733072 0 1 tcp 1080 ------- 0 0.0 2.0 23 35
+ 1.733072 1 2 tcp 1080 ------- 0 0.0 2.0 23 35
r 1.733158 0 1 tcp 1080 ------- 0 0.0 2.0 24 36
+ 1.733158 1 2 tcp 1080 ------- 0 0.0 2.0 24 36
r 1.769386 1 0 ack 40 ------- 0 2.0 0.0 12 37
+ 1.769386 0 1 tcp 1080 ------- 0 0.0 2.0 25 38
- 1.769386 0 1 tcp 1080 ------- 0 0.0 2.0 25 38
+ 1.769386 0 1 tcp 1080 ------- 0 0.0 2.0 26 39
- 1.769472 0 1 tcp 1080 ------- 0 0.0 2.0 26 39
- 1.800582 1 2 tcp 1080 ------- 0 0.0 2.0 14 21
r 1.801582 1 2 tcp 1080 ------- 0 0.0 2.0 13 20
+ 1.801582 2 1 ack 40 ------- 0 2.0 0.0 13 40
- 1.801582 2 1 ack 40 ------- 0 2.0 0.0 13 40
r 1.805782 2 1 ack 40 ------- 0 2.0 0.0 13 40
+ 1.805782 1 0 ack 40 ------- 0 2.0 0.0 13 40
- 1.805782 1 0 ack 40 ------- 0 2.0 0.0 13 40
r 1.819472 0 1 tcp 1080 ------- 0 0.0 2.0 25 38
+ 1.819472 1 2 tcp 1080 ------- 0 0.0 2.0 25 38
r 1.819558 0 1 tcp 1080 ------- 0 0.0 2.0 26 39
+ 1.819558 1 2 tcp 1080 ------- 0 0.0 2.0 26 39
r 1.855786 1 0 ack 40 ------- 0 2.0 0.0 13 40
+ 1.855786 0 1 tcp 1080 ------- 0 0.0 2.0 27 41
- 1.855786 0 1 tcp 1080 ------- 0 0.0 2.0 27 41
+ 1.855786 0 1 tcp 1080 ------- 0 0.0 2.0 28 42
- 1.855872 0 1 tcp 1080 ------- 0 0.0 2.0 28 42
- 1.886982 1 2 tcp 1080 ------- 0 0.0 2.0 15 23
r 1.887982 1 2 tcp 1080 ------- 0 0.0 2.0 14 21
+ 1.887982 2 1 ack 40 ------- 0 2.0 0.0 14 43
- 1.887982 2 1 ack 40 ------- 0 2.0 0.0 14 43
r 1.892182 2 1 ack 40 ------- 0 2.0 0.0 14 43
+ 1.892182 1 0 ack 40 ------- 0 2.0 0.0 14 43
- 1.892182 1 0 ack 40 ------- 0 2.0 0.0 14 43
r 1.905872 0 1 tcp 1080 ------- 0 0.0 2.0 27 41
+ 1.905872 1 2 tcp 1080 ------- 0 0.0 2.0 27 41
r 1.905958 0 1 tcp 1080 ------- 0 0.0 2.0 28 42
+ 1.905958 1 2 tcp 1080 ------- 0 0.0 2.0 28 42
r 1.942186 1 0 ack 40 ------- 0 2.0 0.0 14 43
+ 1.942186 0 1 tcp 1080 ------- 0 0.0 2.0 29 44
- 1.942186 0 1 tcp 1080 ------- 0 0.0 2.0 29 44
+ 1.942186 0 1 tcp 1080 ------- 0 0.0 2.0 30 45
- 1.942272 0 1 tcp 1080 ------- 0 0.0 2.0 30 45
- 1.973382 1 2 tcp 1080 ------- 0 0.0 2.0 16 24
r 1.974382 1 2 tcp 1080 ------- 0 0.0 2.0 15 23
+ 1.974382 2 1 ack 40 ------- 0 2.0 0.0 15 46
- 1.974382 2 1 ack 40 ------- 0 2.0 0.0 15 46
r 1.978582 2 1 ack 40 ------- 0 2.0 0.0 15 46
+ 1.978582 1 0 ack 40 ------- 0 2.0 0.0 15 46
- 1.978582 1 0 ack 40 ------- 0 2.0 0.0 15 46
r 1.992272 0 1 tcp 1080 ------- 0 0.0 2.0 29 44
+ 1.992272 1 2 tcp 1080 ------- 0 0.0 2.0 29 44
r 1.992358 0 1 tcp 1080 ------- 0 0.0 2.0 30 45
+ 1.992358 1 2 tcp 1080 ------- 0 0.0 2.0 30 45
r 2.028586 1 0 ack 40 ------- 0 2.0 0.0 15 46
+ 2.028586 0 1 tcp 1080 ------- 0 0.0 2.0 31 47
- 2.028586 0 1 tcp 1080 ------- 0 0.0 2.0 31 47
+ 2.028586 0 1 tcp 1080 ------- 0 0.0 2.0 32 48
- 2.028672 0 1 tcp 1080 ------- 0 0.0 2.0 32 48
- 2.059782 1 2 tcp 1080 ------- 0 0.0 2.0 17 26
r 2.060782 1 2 tcp 1080 ------- 0 0.0 2.0 16 24
+ 2.060782 2 1 ack 40 ------- 0 2.0 0.0 16 49
- 2.060782 2 1 ack 40 ------- 0 2.0 0.0 16 49
r 2.064982 2 1 ack 40 ------- 0 2.0 0.0 16 49
+ 2.064982 1 0 ack 40 ------- 0 2.0 0.0 16 49
- 2.064982 1 0 ack 40 ------- 0 2.0 0.0 16 49
r 2.078672 0 1 tcp 1080 ------- 0 0.0 2.0 31 47
+ 2.078672 1 2 tcp 1080 ------- 0 0.0 2.0 31 47
r 2.078758 0 1 tcp 1080 ------- 0 0.0 2.0 32 48
+ 2.078758 1 2 tcp 1080 ------- 0 0.0 2.0 32 48
r 2.114986 1 0 ack 40 ------- 0 2.0 0.0 16 49
+ 2.114986 0 1 tcp 1080 ------- 0 0.0 2.0 33 50
- 2.114986 0 1 tcp 1080 ------- 0 0.0 2.0 33 50
+ 2.114986 0 1 tcp 1080 ------- 0 0.0 2.0 34 51
- 2.115072 0 1 tcp 1080 ------- 0 0.0 2.0 34 51
- 2.146182 1 2 tcp 1080 ------- 0 0.0 2.0 18 27
r 2.147182 1 2 tcp 1080 ------- 0 0.0 2.0 17 26
+ 2.147182 2 1 ack 40 ------- 0 2.0 0.0 17 52
- 2.147182 2 1 ack 40 ------- 0 2.0 0.0 17 52
r 2.151382 2 1 ack 40 ------- 0 2.0 0.0 17 52
+ 2.151382 1 0 ack 40 ------- 0 2.0 0.0 17 52
- 2.151382 1 0 ack 40 ------- 0 2.0 0.0 17 52
r 2.165072 0 1 tcp 1080 ------- 0 0.0 2.0 33 50
+ 2.165072 1 2 tcp 1080 ------- 0 0.0 2.0 33 50
r 2.165158 0 1 tcp 1080 ------- 0 0.0 2.0 34 51
+ 2.165158 1 2 tcp 1080 ------- 0 0.0 2.0 34 51
r 2.201386 1 0 ack 40 ------- 0 2.0 0.0 17 52
+ 2.201386 0 1 tcp 1080 ------- 0 0.0 2.0 35 53
- 2.201386 0 1 tcp 1080 ------- 0 0.0 2.0 35 53
+ 2.201386 0 1 tcp 1080 ------- 0 0.0 2.0 36 54
- 2.201472 0 1 tcp 1080 ------- 0 0.0 2.0 36 54
- 2.232582 1 2 tcp 1080 ------- 0 0.0 2.0 19 29
r 2.233582 1 2 tcp 1080 ------- 0 0.0 2.0 18 27
+ 2.233582 2 1 ack 40 ------- 0 2.0 0.0 18 55
- 2.233582 2 1 ack 40 ------- 0 2.0 0.0 18 55
r 2.237782 2 1 ack 40 ------- 0 2.0 0.0 18 55
+ 2.237782 1 0 ack 40 ------- 0 2.0 0.0 18 55
- 2.237782 1 0 ack 40 ------- 0 2.0 0.0 18 55
r 2.251472 0 1 tcp 1080 ------- 0 0.0 2.0 35 53
+ 2.251472 1 2 tcp 1080 ------- 0 0.0 2.0 35 53
r 2.251558 0 1 tcp 1080 ------- 0 0.0 2.0 36 54
+ 2.251558 1 2 tcp 1080 ------- 0 0.0 2.0 36 54
r 2.287786 1 0 ack 40 ------- 0 2.0 0.0 18 55
+ 2.287786 0 1 tcp 1080 ------- 0 0.0 2.0 37 56
- 2.287786 0 1 tcp 1080 ------- 0 0.0 2.0 37 56
+ 2.287786 0 1 tcp 1080 ------- 0 0.0 2.0 38 57
- 2.287872 0 1 tcp 1080 ------- 0 0.0 2.0 38 57
- 2.318982 1 2 tcp 1080 ------- 0 0.0 2.0 20 30
r 2.319982 1 2 tcp 1080 ------- 0 0.0 2.0 19 29
+ 2.319982 2 1 ack 40 ------- 0 2.0 0.0 19 58
- 2.319982 2 1 ack 40 ------- 0 2.0 0.0 19 58
r 2.324182 2 1 ack 40 ------- 0 2.0 0.0 19 58
+ 2.324182 1 0 ack 40 ------- 0 2.0 0.0 19 58
- 2.324182 1 0 ack 40 ------- 0 2.0 0.0 19 58
r 2.337872 0 1 tcp 1080 ------- 0 0.0 2.0 37 56
+ 2.337872 1 2 tcp 1080 ------- 0 0.0 2.0 37 56
r 2.337958 0 1 tcp 1080 ------- 0 0.0 2.0 38 57
+ 2.337958 1 2 tcp 1080 ------- 0 0.0 2.0 38 57
r 2.374186 1 0 ack 40 ------- 0 2.0 0.0 19 58
+ 2.374186 0 1 tcp 1080 ------- 0 0.0 2.0 39 59
- 2.374186 0 1 tcp 1080 ------- 0 0.0 2.0 39 59
- 2.405382 1 2 tcp 1080 ------- 0 0.0 2.0 21 32
r 2.406382 1 2 tcp 1080 ------- 0 0.0 2.0 20 30
+ 2.406382 2 1 ack 40 ------- 0 2.0 0.0 20 60
- 2.406382 2 1 ack 40 ------- 0 2.0 0.0 20 60
r 2.410582 2 1 ack 40 ------- 0 2.0 0.0 20 60
+ 2.410582 1 0 ack 40 ------- 0 2.0 0.0 20 60
- 2.410582 1 0 ack 40 ------- 0 2.0 0.0 20 60
r 2.424272 0 1 tcp 1080 ------- 0 0.0 2.0 39 59
+ 2.424272 1 2 tcp 1080 ------- 0 0.0 2.0 39 59
r 2.460586 1 0 ack 40 ------- 0 2.0 0.0 20 60
+ 2.460586 0 1 tcp 1080 ------- 0 0.0 2.0 40 61
- 2.460586 0 1 tcp 1080 ------- 0 0.0 2.0 40 61
- 2.491782 1 2 tcp 1080 ------- 0 0.0 2.0 22 33
r 2.492782 1 2 tcp 1080 ------- 0 0.0 2.0 21 32
+ 2.492782 2 1 ack 40 ------- 0 2.0 0.0 21 62
- 2.492782 2 1 ack 40 ------- 0 2.0 0.0 21 62
r 2.496982 2 1 ack 40 ------- 0 2.0 0.0 21 62
+ 2.496982 1 0 ack 40 ------- 0 2.0 0.0 21 62
- 2.496982 1 0 ack 40 ------- 0 2.0 0.0 21 62
r 2.510672 0 1 tcp 1080 ------- 0 0.0 2.0 40 61
+ 2.510672 1 2 tcp 1080 ------- 0 0.0 2.0 40 61
r 2.546986 1 0 ack 40 ------- 0 2.0 0.0 21 62
+ 2.546986 0 1 tcp 1080 ------- 0 0.0 2.0 41 63
- 2.546986 0 1 tcp 1080 ------- 0 0.0 2.0 41 63
- 2.578182 1 2 tcp 1080 ------- 0 0.0 2.0 23 35
r 2.579182 1 2 tcp 1080 ------- 0 0.0 2.0 22 33
+ 2.579182 2 1 ack 40 ------- 0 2.0 0.0 22 64
- 2.579182 2 1 ack 40 ------- 0 2.0 0.0 22 64
r 2.583382 2 1 ack 40 ------- 0 2.0 0.0 22 64
+ 2.583382 1 0 ack 40 ------- 0 2.0 0.0 22 64
- 2.583382 1 0 ack 40 ------- 0 2.0 0.0 22 64
r 2.597072 0 1 tcp 1080 ------- 0 0.0 2.0 41 63
+ 2.597072 1 2 tcp 1080 ------- 0 0.0 2.0 41 63
r 2.633386 1 0 ack 40 ------- 0 2.0 0.0 22 64
+ 2.633386 0 1 tcp 1080 ------- 0 0.0 2.0 42 65
- 2.633386 0 1 tcp 1080 ------- 0 0.0 2.0 42 65
- 2.664582 1 2 tcp 1080 ------- 0 0.0 2.0 24 36
r 2.665582 1 2 tcp 1080 ------- 0 0.0 2.0 23 35
+ 2.665582 2 1 ack 40 ------- 0 2.0 0.0 23 66
- 2.665582 2 1 ack 40 ------- 0 2.0 0.0 23 66
r 2.669782 2 1 ack 40 ------- 0 2.0 0.0 23 66
+ 2.669782 1 0 ack 40 ------- 0 2.0 0.0 23 66
- 2.669782 1 0 ack 40 ------- 0 2.0 0.0 23 66
r 2.683472 0 1 tcp 1080 ------- 0 0.0 2.0 42 65
+ 2.683472 1 2 tcp 1080 ------- 0 0.0 2.0 42 65
r 2.719786 1 0 ack 40 ------- 0 2.0 0.0 23 66
+ 2.719786 0 1 tcp 1080 ------- 0 0.0 2.0 43 67
- 2.719786 0 1 tcp 1080 ------- 0 0.0 2.0 43 67
- 2.750982 1 2 tcp 1080 ------- 0 0.0 2.0 25 38
r 2.751982 1 2 tcp 1080 ------- 0 0.0 2.0 24 36
+ 2.751982 2 1 ack 40 ------- 0 2.0 0.0 24 68
- 2.751982 2 1 ack 40 ------- 0 2.0 0.0 24 68
r 2.756182 2 1 ack 40 ------- 0 2.0 0.0 24 68
+ 2.756182 1 0 ack 40 ------- 0 2.0 0.0 24 68
- 2.756182 1 0 ack 40 ------- 0 2.0 0.0 24 68
r 2.769872 0 1 tcp 1080 ------- 0 0.0 2.0 43 67
+ 2.769872 1 2 tcp 1080 ------- 0 0.0 2.0 43 67
r 2.806186 1 0 ack 40 ------- 0 2.0 0.0 24 68
+ 2.806186 0 1 tcp 1080 ------- 0 0.0 2.0 44 69
- 2.806186 0 1 tcp 1080 ------- 0 0.0 2.0 44 69
- 2.837382 1 2 tcp 1080 ------- 0 0.0 2.0 26 39
r 2.838382 1 2 tcp 1080 ------- 0 0.0 2.0 25 38
+ 2.838382 2 1 ack 40 ------- 0 2.0 0.0 25 70
- 2.838382 2 1 ack 40 ------- 0 2.0 0.0 25 70
r 2.842582 2 1 ack 40 ------- 0 2.0 0.0 25 70
+ 2.842582 1 0 ack 40 ------- 0 2.0 0.0 25 70
- 2.842582 1 0 ack 40 ------- 0 2.0 0.0 25 70
r 2.856272 0 1 tcp 1080 ------- 0 0.0 2.0 44 69
+ 2.856272 1 2 tcp 1080 ------- 0 0.0 2.0 44 69
r 2.892586 1 0 ack 40 ------- 0 2.0 0.0 25 70
+ 2.892586 0 1 tcp 1080 ------- 0 0.0 2.0 45 71
- 2.892586 0 1 tcp 1080 ------- 0 0.0 2.0 45 71
- 2.923782 1 2 tcp 1080 ------- 0 0.0 2.0 27 41
r 2.924782 1 2 tcp 1080 ------- 0 0.0 2.0 26 39
+ 2.924782 2 1 ack 40 ------- 0 2.0 0.0 26 72
- 2.924782 2 1 ack 40 ------- 0 2.0 0.0 26 72
r 2.928982 2 1 ack 40 ------- 0 2.0 0.0 26 72
+ 2.928982 1 0 ack 40 ------- 0 2.0 0.0 26 72
- 2.928982 1 0 ack 40 ------- 0 2.0 0.0 26 72
r 2.942672 0 1 tcp 1080 ------- 0 0.0 2.0 45 71
+ 2.942672 1 2 tcp 1080 ------- 0 0.0 2.0 45 71
r 2.978986 1 0 ack 40 ------- 0 2.0 0.0 26 72
+ 2.978986 0 1 tcp 1080 ------- 0 0.0 2.0 46 73
- 2.978986 0 1 tcp 1080 ------- 0 0.0 2.0 46 73
- 3.010182 1 2 tcp 1080 ------- 0 0.0 2.0 28 42
r 3.011182 1 2 tcp 1080 ------- 0 0.0 2.0 27 41
+ 3.011182 2 1 ack 40 ------- 0 2.0 0.0 27 74
- 3.011182 2 1 ack 40 ------- 0 2.0 0.0 27 74
r 3.015382 2 1 ack 40 ------- 0 2.0 0.0 27 74
+ 3.015382 1 0 ack 40 ------- 0 2.0 0.0 27 74
- 3.015382 1 0 ack 40 ------- 0 2.0 0.0 27 74
r 3.029072 0 1 tcp 1080 ------- 0 0.0 2.0 46 73
+ 3.029072 1 2 tcp 1080 ------- 0 0.0 2.0 46 73
r 3.065386 1 0 ack 40 ------- 0 2.0 0.0 27 74
+ 3.065386 0 1 tcp 1080 ------- 0 0.0 2.0 47 75
- 3.065386 0 1 tcp 1080 ------- 0 0.0 2.0 47 75
- 3.096582 1 2 tcp 1080 ------- 0 0.0 2.0 29 44
r 3.097582 1 2 tcp 1080 ------- 0 0.0 2.0 28 42
+ 3.097582 2 1 ack 40 ------- 0 2.0 0.0 28 76
- 3.097582 2 1 ack 40 ------- 0 2.0 0.0 28 76
r 3.101782 2 1 ack 40 ------- 0 2.0 0.0 28 76
+ 3.101782 1 0 ack 40 ------- 0 2.0 0.0 28 76
- 3.101782 1 0 ack 40 ------- 0 2.0 0.0 28 76
r 3.115472 0 1 tcp 1080 ------- 0 0.0 2.0 47 75
+ 3.115472 1 2 tcp 1080 ------- 0 0.0 2.0 47 75
r 3.151786 1 0 ack 40 ------- 0 2.0 0.0 28 76
+ 3.151786 0 1 tcp 1080 ------- 0 0.0 2.0 48 77
- 3.151786 0 1 tcp 1080 ------- 0 0.0 2.0 48 77
- 3.182982 1 2 tcp 1080 ------- 0 0.0 2.0 30 45
r 3.183982 1 2 tcp 1080 ------- 0 0.0 2.0 29 44
+ 3.183982 2 1 ack 40 ------- 0 2.0 0.0 29 78
- 3.183982 2 1 ack 40 ------- 0 2.0 0.0 29 78
r 3.188182 2 1 ack 40 ------- 0 2.0 0.0 29 78
+ 3.188182 1 0 ack 40 ------- 0 2.0 0.0 29 78
- 3.188182 1 0 ack 40 ------- 0 2.0 0.0 29 78
r 3.201872 0 1 tcp 1080 ------- 0 0.0 2.0 48 77
+ 3.201872 1 2 tcp 1080 ------- 0 0.0 2.0 48 77
r 3.238186 1 0 ack 40 ------- 0 2.0 0.0 29 78
+ 3.238186 0 1 tcp 1080 ------- 0 0.0 2.0 49 79
- 3.238186 0 1 tcp 1080 ------- 0 0.0 2.0 49 79
- 3.269382 1 2 tcp 1080 ------- 0 0.0 2.0 31 47
r 3.270382 1 2 tcp 1080 ------- 0 0.0 2.0 30 45
+ 3.270382 2 1 ack 40 ------- 0 2.0 0.0 30 80
- 3.270382 2 1 ack 40 ------- 0 2.0 0.0 30 80
r 3.274582 2 1 ack 40 ------- 0 2.0 0.0 30 80
+ 3.274582 1 0 ack 40 ------- 0 2.0 0.0 30 80
- 3.274582 1 0 ack 40 ------- 0 2.0 0.0 30 80
r 3.288272 0 1 tcp 1080 ------- 0 0.0 2.0 49 79
+ 3.288272 1 2 tcp 1080 ------- 0 0.0 2.0 49 79
r 3.324586 1 0 ack 40 ------- 0 2.0 0.0 30 80
+ 3.324586 0 1 tcp 1080 ------- 0 0.0 2.0 50 81
- 3.324586 0 1 tcp 1080 ------- 0 0.0 2.0 50 81
- 3.355782 1 2 tcp 1080 ------- 0 0.0 2.0 32 48
r 3.356782 1 2 tcp 1080 ------- 0 0.0 2.0 31 47
+ 3.356782 2 1 ack 40 ------- 0 2.0 0.0 31 82
- 3.356782 2 1 ack 40 ------- 0 2.0 0.0 31 82
r 3.360982 2 1 ack 40 ------- 0 2.0 0.0 31 82
+ 3.360982 1 0 ack 40 ------- 0 2.0 0.0 31 82
- 3.360982 1 0 ack 40 ------- 0 2.0 0.0 31 82
r 3.374672 0 1 tcp 1080 ------- 0 0.0 2.0 50 81
+ 3.374672 1 2 tcp 1080 ------- 0 0.0 2.0 50 81
r 3.410986 1 0 ack 40 ------- 0 2.0 0.0 31 82
+ 3.410986 0 1 tcp 1080 ------- 0 0.0 2.0 51 83
- 3.410986 0 1 tcp 1080 ------- 0 0.0 2.0 51 83
- 3.442182 1 2 tcp 1080 ------- 0 0.0 2.0 33 50
r 3.443182 1 2 tcp 1080 ------- 0 0.0 2.0 32 48
+ 3.443182 2 1 ack 40 ------- 0 2.0 0.0 32 84
- 3.443182 2 1 ack 40 ------- 0 2.0 0.0 32 84
r 3.447382 2 1 ack 40 ------- 0 2.0 0.0 32 84
+ 3.447382 1 0 ack 40 ------- 0 2.0 0.0 32 84
- 3.447382 1 0 ack 40 ------- 0 2.0 0.0 32 84
r 3.461072 0 1 tcp 1080 ------- 0 0.0 2.0 51 83
+ 3.461072 1 2 tcp 1080 ------- 0 0.0 2.0 51 83
r 3.497386 1 0 ack 40 ------- 0 2.0 0.0 32 84
+ 3.497386 0 1 tcp 1080 ------- 0 0.0 2.0 52 85
- 3.497386 0 1 tcp 1080 ------- 0 0.0 2.0 52 85
- 3.528582 1 2 tcp 1080 ------- 0 0.0 2.0 34 51
r 3.529582 1 2 tcp 1080 ------- 0 0.0 2.0 33 50
+ 3.529582 2 1 ack 40 ------- 0 2.0 0.0 33 86
- 3.529582 2 1 ack 40 ------- 0 2.0 0.0 33 86
r 3.533782 2 1 ack 40 ------- 0 2.0 0.0 33 86
+ 3.533782 1 0 ack 40 ------- 0 2.0 0.0 33 86
- 3.533782 1 0 ack 40 ------- 0 2.0 0.0 33 86
r 3.547472 0 1 tcp 1080 ------- 0 0.0 2.0 52 85
+ 3.547472 1 2 tcp 1080 ------- 0 0.0 2.0 52 85
r 3.583786 1 0 ack 40 ------- 0 2.0 0.0 33 86
+ 3.583786 0 1 tcp 1080 ------- 0 0.0 2.0 53 87
- 3.583786 0 1 tcp 1080 ------- 0 0.0 2.0 53 87
- 3.614982 1 2 tcp 1080 ------- 0 0.0 2.0 35 53
r 3.615982 1 2 tcp 1080 ------- 0 0.0 2.0 34 51
+ 3.615982 2 1 ack 40 ------- 0 2.0 0.0 34 88
- 3.615982 2 1 ack 40 ------- 0 2.0 0.0 34 88
r 3.620182 2 1 ack 40 ------- 0 2.0 0.0 34 88
+ 3.620182 1 0 ack 40 ------- 0 2.0 0.0 34 88
- 3.620182 1 0 ack 40 ------- 0 2.0 0.0 34 88
r 3.633872 0 1 tcp 1080 ------- 0 0.0 2.0 53 87
+ 3.633872 1 2 tcp 1080 ------- 0 0.0 2.0 53 87
r 3.670186 1 0 ack 40 ------- 0 2.0 0.0 34 88
+ 3.670186 0 1 tcp 1080 ------- 0 0.0 2.0 54 89
- 3.670186 0 1 tcp 1080 ------- 0 0.0 2.0 54 89
- 3.701382 1 2 tcp 1080 ------- 0 0.0 2.0 36 54
r 3.702382 1 2 tcp 1080 ------- 0 0.0 2.0 35 53
+ 3.702382 2 1 ack 40 ------- 0 2.0 0.0 35 90
- 3.702382 2 1 ack 40 ------- 0 2.0 0.0 35 90
r 3.706582 2 1 ack 40 ------- 0 2.0 0.0 35 90
+ 3.706582 1 0 ack 40 ------- 0 2.0 0.0 35 90
- 3.706582 1 0 ack 40 ------- 0 2.0 0.0 35 90
r 3.720272 0 1 tcp 1080 ------- 0 0.0 2.0 54 89
+ 3.720272 1 2 tcp 1080 ------- 0 0.0 2.0 54 89
r 3.756586 1 0 ack 40 ------- 0 2.0 0.0 35 90
+ 3.756586 0 1 tcp 1080 ------- 0 0.0 2.0 55 91
- 3.756586 0 1 tcp 1080 ------- 0 0.0 2.0 55 91
- 3.787782 1 2 tcp 1080 ------- 0 0.0 2.0 37 56
r 3.788782 1 2 tcp 1080 ------- 0 0.0 2.0 36 54
+ 3.788782 2 1 ack 40 ------- 0 2.0 0.0 36 92
- 3.788782 2 1 ack 40 ------- 0 2.0 0.0 36 92
r 3.792982 2 1 ack 40 ------- 0 2.0 0.0 36 92
+ 3.792982 1 0 ack 40 ------- 0 2.0 0.0 36 92
- 3.792982 1 0 ack 40 ------- 0 2.0 0.0 36 92
r 3.806672 0 1 tcp 1080 ------- 0 0.0 2.0 55 91
+ 3.806672 1 2 tcp 1080 ------- 0 0.0 2.0 55 91
r 3.842986 1 0 ack 40 ------- 0 2.0 0.0 36 92
+ 3.842986 0 1 tcp 1080 ------- 0 0.0 2.0 56 93
- 3.842986 0 1 tcp 1080 ------- 0 0.0 2.0 56 93
- 3.874182 1 2 tcp 1080 ------- 0 0.0 2.0 38 57
r 3.875182 1 2 tcp 1080 ------- 0 0.0 2.0 37 56
+ 3.875182 2 1 ack 40 ------- 0 2.0 0.0 37 94
- 3.875182 2 1 ack 40 ------- 0 2.0 0.0 37 94
r 3.879382 2 1 ack 40 ------- 0 2.0 0.0 37 94
+ 3.879382 1 0 ack 40 ------- 0 2.0 0.0 37 94
- 3.879382 1 0 ack 40 ------- 0 2.0 0.0 37 94
r 3.893072 0 1 tcp 1080 ------- 0 0.0 2.0 56 93
+ 3.893072 1 2 tcp 1080 ------- 0 0.0 2.0 56 93
r 3.929386 1 0 ack 40 ------- 0 2.0 0.0 37 94
+ 3.929386 0 1 tcp 1080 ------- 0 0.0 2.0 57 95
- 3.929386 0 1 tcp 1080 ------- 0 0.0 2.0 57 95
- 3.960582 1 2 tcp 1080 ------- 0 0.0 2.0 39 59
r 3.961582 1 2 tcp 1080 ------- 0 0.0 2.0 38 57
+ 3.961582 2 1 ack 40 ------- 0 2.0 0.0 38 96
- 3.961582 2 1 ack 40 ------- 0 2.0 0.0 38 96
r 3.965782 2 1 ack 40 ------- 0 2.0 0.0 38 96
+ 3.965782 1 0 ack 40 ------- 0 2.0 0.0 38 96
- 3.965782 1 0 ack 40 ------- 0 2.0 0.0 38 96
r 3.979472 0 1 tcp 1080 ------- 0 0.0 2.0 57 95
+ 3.979472 1 2 tcp 1080 ------- 0 0.0 2.0 57 95
r 4.015786 1 0 ack 40 ------- 0 2.0 0.0 38 96
+ 4.015786 0 1 tcp 1080 ------- 0 0.0 2.0 58 97
- 4.015786 0 1 tcp 1080 ------- 0 0.0 2.0 58 97
- 4.046982 1 2 tcp 1080 ------- 0 0.0 2.0 40 61
r 4.047982 1 2 tcp 1080 ------- 0 0.0 2.0 39 59
+ 4.047982 2 1 ack 40 ------- 0 2.0 0.0 39 98
- 4.047982 2 1 ack 40 ------- 0 2.0 0.0 39 98
r 4.052182 2 1 ack 40 ------- 0 2.0 0.0 39 98
+ 4.052182 1 0 ack 40 ------- 0 2.0 0.0 39 98
- 4.052182 1 0 ack 40 ------- 0 2.0 0.0 39 98
r 4.065872 0 1 tcp 1080 ------- 0 0.0 2.0 58 97
+ 4.065872 1 2 tcp 1080 ------- 0 0.0 2.0 58 97
r 4.102186 1 0 ack 40 ------- 0 2.0 0.0 39 98
+ 4.102186 0 1 tcp 1080 ------- 0 0.0 2.0 59 99
- 4.102186 0 1 tcp 1080 ------- 0 0.0 2.0 59 99
- 4.133382 1 2 tcp 1080 ------- 0 0.0 2.0 41 63
r 4.134382 1 2 tcp 1080 ------- 0 0.0 2.0 40 61
+ 4.134382 2 1 ack 40 ------- 0 2.0 0.0 40 100
- 4.134382 2 1 ack 40 ------- 0 2.0 0.0 40 100
r 4.138582 2 1 ack 40 ------- 0 2.0 0.0 40 100
+ 4.138582 1 0 ack 40 ------- 0 2.0 0.0 40 100
- 4.138582 1 0 ack 40 ------- 0 2.0 0.0 40 100
r 4.152272 0 1 tcp 1080 ------- 0 0.0 2.0 59 99
+ 4.152272 1 2 tcp 1080 ------- 0 0.0 2.0 59 99
r 4.188586 1 0 ack 40 ------- 0 2.0 0.0 40 100
+ 4.188586 0 1 tcp 1080 ------- 0 0.0 2.0 60 101
- 4.188586 0 1 tcp 1080 ------- 0 0.0 2.0 60 101
- 4.219782 1 2 tcp 1080 ------- 0 0.0 2.0 42 65
r 4.220782 1 2 tcp 1080 ------- 0 0.0 2.0 41 63
+ 4.220782 2 1 ack 40 ------- 0 2.0 0.0 41 102
- 4.220782 2 1 ack 40 ------- 0 2.0 0.0 41 102
r 4.224982 2 1 ack 40 ------- 0 2.0 0.0 41 102
+ 4.224982 1 0 ack 40 ------- 0 2.0 0.0 41 102
- 4.224982 1 0 ack 40 ------- 0 2.0 0.0 41 102
r 4.238672 0 1 tcp 1080 ------- 0 0.0 2.0 60 101
+ 4.238672 1 2 tcp 1080 ------- 0 0.0 2.0 60 101
r 4.274986 1 0 ack 40 ------- 0 2.0 0.0 41 102
+ 4.274986 0 1 tcp 1080 ------- 0 0.0 2.0 61 103
- 4.274986 0 1 tcp 1080 ------- 0 0.0 2.0 61 103
- 4.306182 1 2 tcp 1080 ------- 0 0.0 2.0 43 67
r 4.307182 1 2 tcp 1080 ------- 0 0.0 2.0 42 65
+ 4.307182 2 1 ack 40 ------- 0 2.0 0.0 42 104
- 4.307182 2 1 ack 40 ------- 0 2.0 0.0 42 104
r 4.311382 2 1 ack 40 ------- 0 2.0 0.0 42 104
+ 4.311382 1 0 ack 40 ------- 0 2.0 0.0 42 104
- 4.311382 1 0 ack 40 ------- 0 2.0 0.0 42 104
r 4.325072 0 1 tcp 1080 ------- 0 0.0 2.0 61 103
+ 4.325072 1 2 tcp 1080 ------- 0 0.0 2.0 61 103
r 4.361386 1 0 ack 40 ------- 0 2.0 0.0 42 104
+ 4.361386 0 1 tcp 1080 ------- 0 0.0 2.0 62 105
- 4.361386 0 1 tcp 1080 ------- 0 0.0 2.0 62 105
- 4.392582 1 2 tcp 1080 ------- 0 0.0 2.0 44 69
r 4.393582 1 2 tcp 1080 ------- 0 0.0 2.0 43 67
+ 4.393582 2 1 ack 40 ------- 0 2.0 0.0 43 106
- 4.393582 2 1 ack 40 ------- 0 2.0 0.0 43 106
r 4.397782 2 1 ack 40 ------- 0 2.0 0.0 43 106
+ 4.397782 1 0 ack 40 ------- 0 2.0 0.0 43 106
- 4.397782 1 0 ack 40 ------- 0 2.0 0.0 43 106
r 4.411472 0 1 tcp 1080 ------- 0 0.0 2.0 62 105
+ 4.411472 1 2 tcp 1080 ------- 0 0.0 2.0 62 105
r 4.447786 1 0 ack 40 ------- 0 2.0 0.0 43 106
+ 4.447786 0 1 tcp 1080 ------- 0 0.0 2.0 63 107
- 4.447786 0 1 tcp 1080 ------- 0 0.0 2.0 63 107
- 4.478982 1 2 tcp 1080 ------- 0 0.0 2.0 45 71
r 4.479982 1 2 tcp 1080 ------- 0 0.0 2.0 44 69
+ 4.479982 2 1 ack 40 ------- 0 2.0 0.0 44 108
- 4.479982 2 1 ack 40 ------- 0 2.0 0.0 44 108
r 4.484182 2 1 ack 40 ------- 0 2.0 0.0 44 108
+ 4.484182 1 0 ack 40 ------- 0 2.0 0.0 44 108
- 4.484182 1 0 ack 40 ------- 0 2.0 0.0 44 108
r 4.497872 0 1 tcp 1080 ------- 0 0.0 2.0 63 107
+ 4.497872 1 2 tcp 1080 ------- 0 0.0 2.0 63 107
r 4.534186 1 0 ack 40 ------- 0 2.0 0.0 44 108
+ 4.534186 0 1 tcp 1080 ------- 0 0.0 2.0 64 109
- 4.534186 0 1 tcp 1080 ------- 0 0.0 2.0 64 109
- 4.565382 1 2 tcp 1080 ------- 0 0.0 2.0 46 73
r 4.566382 1 2 tcp 1080 ------- 0 0.0 2.0 45 71
+ 4.566382 2 1 ack 40 ------- 0 2.0 0.0 45 110
- 4.566382 2 1 ack 40 ------- 0 2.0 0.0 45 110
r 4.570582 2 1 ack 40 ------- 0 2.0 0.0 45 110
+ 4.570582 1 0 ack 40 ------- 0 2.0 0.0 45 110
- 4.570582 1 0 ack 40 ------- 0 2.0 0.0 45 110
r 4.584272 0 1 tcp 1080 ------- 0 0.0 2.0 64 109
+ 4.584272 1 2 tcp 1080 ------- 0 0.0 2.0 64 109
r 4.620586 1 0 ack 40 ------- 0 2.0 0.0 45 110
+ 4.620586 0 1 tcp 1080 ------- 0 0.0 2.0 65 111
- 4.620586 0 1 tcp 1080 ------- 0 0.0 2.0 65 111
- 4.651782 1 2 tcp 1080 ------- 0 0.0 2.0 47 75
r 4.652782 1 2 tcp 1080 ------- 0 0.0 2.0 46 73
+ 4.652782 2 1 ack 40 ------- 0 2.0 0.0 46 112
- 4.652782 2 1 ack 40 ------- 0 2.0 0.0 46 112
r 4.656982 2 1 ack 40 ------- 0 2.0 0.0 46 112
+ 4.656982 1 0 ack 40 ------- 0 2.0 0.0 46 112
- 4.656982 1 0 ack 40 ------- 0 2.0 0.0 46 112
r 4.670672 0 1 tcp 1080 ------- 0 0.0 2.0 65 111