V -t * -v 1.0a5 -a 0
A -t * -n 1 -p 0 -o 0x7fffffff -c 30 -a 1
A -t * -h 1 -m 1073741823 -s 0
n -t * -a 0 -s 0 -S UP -v circle -c black -i black
n -t * -a 1 -s 1 -S UP -v circle -c black -i black
n -t * -a 2 -s 2 -S UP -v circle -c black -i black
l -t * -s 0 -d 1 -S UP -r 100000000 -D 0.050000000000000003 -c black -o right-down
l -t * -s 1 -d 2 -S UP -r 100000 -D 0.001 -c black -o right
+ -t 0.5 -s 0 -d 1 -p tcp -e 40 -c 0 -i 0 -a 0 -x {0.0 2.0 0 ------- null}
- -t 0.5 -s 0 -d 1 -p tcp -e 40 -c 0 -i 0 -a 0 -x {0.0 2.0 0 ------- null}
h -t 0.5 -s 0 -d 1 -p tcp -e 40 -c 0 -i 0 -a 0 -x {0.0 2.0 -1 ------- null}
r -t 0.5500032 -s 0 -d 1 -p tcp -e 40 -c 0 -i 0 -a 0 -x {0.0 2.0 0 ------- null}
+ -t 0.5500032 -s 1 -d 2 -p tcp -e 40 -c 0 -i 0 -a 0 -x {0.0 2.0 0 ------- null}
- -t 0.5500032 -s 1 -d 2 -p tcp -e 40 -c 0 -i 0 -a 0 -x {0.0 2.0 0 ------- null}
h -t 0.5500032 -s 1 -d 2 -p tcp -e 40 -c 0 -i 0 -a 0 -x {0.0 2.0 -1 ------- null}
r -t 0.5542032 -s 1 -d 2 -p tcp -e 40 -c 0 -i 0 -a 0 -x {0.0 2.0 0 ------- null}
+ -t 0.5542032 -s 2 -d 1 -p ack -e 40 -c 0 -i 1 -a 0 -x {2.0 0.0 0 ------- null}
- -t 0.5542032 -s 2 -d 1 -p ack -e 40 -c 0 -i 1 -a 0 -x {2.0 0.0 0 ------- null}
h -t 0.5542032 -s 2 -d 1 -p ack -e 40 -c 0 -i 1 -a 0 -x {2.0 0.0 -1 ------- null}
r -t 0.5584032 -s 2 -d 1 -p ack -e 40 -c 0 -i 1 -a 0 -x {2.0 0.0 0 ------- null}
+ -t 0.5584032 -s 1 -d 0 -p ack -e 40 -c 0 -i 1 -a 0 -x {2.0 0.0 0 ------- null}
- -t 0.5584032 -s 1 -d 0 -p ack -e 40 -c 0 -i 1 -a 0 -x {2.0 0.0 0 ------- null}
h -t 0.5584032 -s 1 -d 0 -p ack -e 40 -c 0 -i 1 -a 0 -x {2.0 0.0 -1 ------- null}
r -t 0.6084064 -s 1 -d 0 -p ack -e 40 -c 0 -i 1 -a 0 -x {2.0 0.0 0 ------- null}
+ -t 0.6084064 -s 0 -d 1 -p tcp -e 1080 -c 0 -i 2 -a 0 -x {0.0 2.0 1 ------- null}
- -t 0.6084064 -s 0 -d 1 -p tcp -e 1080 -c 0 -i 2 -a 0 -x {0.0 2.0 1 ------- null}
h -t 0.6084064 -s 0 -d 1 -p tcp -e 1080 -c 0 -i 2 -a 0 -x {0.0 2.0 -1 ------- null}
+ -t 0.6084064 -s 0 -d 1 -p tcp -e 1080 -c 0 -i 3 -a 0 -x {0.0 2.0 2 ------- null}
- -t 0.6084928 -s 0 -d 1 -p tcp -e 1080 -c 0 -i 3 -a 0 -x {0.0 2.0 2 ------- null}
h -t 0.6084928 -s 0 -d 1 -p tcp -e 1080 -c 0 -i 3 -a 0 -x {0.0 2.0 -1 ------- null}
r -t 0.6584928 -s 0 -d 1 -p tcp -e 1080 -c 0 -i 2 -a 0 -x {0.0 2.0 1 ------- null}
+ -t 0.6584928 -s 1 -d 2 -p tcp -e 1080 -c 0 -i 2 -a 0 -x {0.0 2.0 1 ------- null}
- -t 0.6584928 -s 1 -d 2 -p tcp -e 1080 -c 0 -i 2 -a 0 -x {0.0 2.0 1 ------- null}
h -t 0.6584928 -s 1 -d 2 -p tcp -e 1080 -c 0 -i 2 -a 0 -x {0.0 2.0 -1 ------- null}
r -t 0.6585792 -s 0 -d 1 -p tcp -e 1080 -c 0 -i 3 -a 0 -x {0.0 2.0 2 ------- null}
+ -t 0.6585792 -s 1 -d 2 -p tcp -e 1080 -c 0 -i 3 -a 0 -x {0.0 2.0 2 ------- null}
- -t 0.7448928 -s 1 -d 2 -p tcp -e 1080 -c 0 -i 3 -a 0 -x {0.0 2.0 2 ------- null}
h -t 0.7448928 -s 1 -d 2 -p tcp -e 1080 -c 0 -i 3 -a 0 -x {0.0 2.0 -1 ------- null}
r -t 0.7458928 -s 1 -d 2 -p tcp -e 1080 -c 0 -i 2 -a 0 -x {0.0 2.0 1 ------- null}
+ -t 0.7458928 -s 2 -d 1 -p ack -e 40 -c 0 -i 4 -a 0 -x {2.0 0.0 1 ------- null}
- -t 0.7458928 -s 2 -d 1 -p ack -e 40 -c 0 -i 4 -a 0 -x {2.0 0.0 1 ------- null}
h -t 0.7458928 -s 2 -d 1 -p ack -e 40 -c 0 -i 4 -a 0 -x {2.0 0.0 -1 ------- null}
r -t 0.7500928 -s 2 -d 1 -p ack -e 40 -c 0 -i 4 -a 0 -x {2.0 0.0 1 ------- null}
+ -t 0.7500928 -s 1 -d 0 -p ack -e 40 -c 0 -i 4 -a 0 -x {2.0 0.0 1 ------- null}
- -t 0.7500928 -s 1 -d 0 -p ack -e 40 -c 0 -i 4 -a 0 -x {2.0 0.0 1 ------- null}
h -t 0.7500928 -s 1 -d 0 -p ack -e 40 -c 0 -i 4 -a 0 -x {2.0 0.0 -1 ------- null}
r -t 0.800096 -s 1 -d 0 -p ack -e 40 -c 0 -i 4 -a 0 -x {2.0 0.0 1 ------- null}
+ -t 0.800096 -s 0 -d 1 -p tcp -e 1080 -c 0 -i 5 -a 0 -x {0.0 2.0 3 ------- null}
- -t 0.800096 -s 0 -d 1 -p tcp -e 1080 -c 0 -i 5 -a 0 -x {0.0 2.0 3 ------- null}
h -t 0.800096 -s 0 -d 1 -p tcp -e 1080 -c 0 -i 5 -a 0 -x {0.0 2.0 -1 ------- null}
+ -t 0.800096 -s 0 -d 1 -p tcp -e 1080 -c 0 -i 6 -a 0 -x {0.0 2.0 4 ------- null}
- -t 0.8001824 -s 0 -d 1 -p tcp -e 1080 -c 0 -i 6 -a 0 -x {0.0 2.0 4 ------- null}
h -t 0.8001824 -s 0 -d 1 -p tcp -e 1080 -c 0 -i 6 -a 0 -x {0.0 2.0 -1 ------- null}
r -t 0.8322928 -s 1 -d 2 -p tcp -e 1080 -c 0 -i 3 -a 0 -x {0.0 2.0 2 ------- null}
+ -t 0.8322928 -s 2 -d 1 -p ack -e 40 -c 0 -i 7 -a 0 -x {2.0 0.0 2 ------- null}
- -t 0.8322928 -s 2 -d 1 -p ack -e 40 -c 0 -i 7 -a 0 -x {2.0 0.0 2 ------- null}
h -t 0.8322928 -s 2 -d 1 -p ack -e 40 -c 0 -i 7 -a 0 -x {2.0 0.0 -1 ------- null}
r -t 0.8364928 -s 2 -d 1 -p ack -e 40 -c 0 -i 7 -a 0 -x {2.0 0.0 2 ------- null}
+ -t 0.8364928 -s 1 -d 0 -p ack -e 40 -c 0 -i 7 -a 0 -x {2.0 0.0 2 ------- null}
- -t 0.8364928 -s 1 -d 0 -p ack -e 40 -c 0 -i 7 -a 0 -x {2.0 0.0 2 ------- null}
h -t 0.8364928 -s 1 -d 0 -p ack -e 40 -c 0 -i 7 -a 0 -x {2.0 0.0 -1 ------- null}
r -t 0.8501824 -s 0 -d 1 -p tcp -e 1080 -c 0 -i 5 -a 0 -x {0.0 2.0 3 ------- null}
+ -t 0.8501824 -s 1 -d 2 -p tcp -e 1080 -c 0 -i 5 -a 0 -x {0.0 2.0 3 ------- null}
- -t 0.8501824 -s 1 -d 2 -p tcp -e 1080 -c 0 -i 5 -a 0 -x {0.0 2.0 3 ------- null}
h -t 0.8501824 -s 1 -d 2 -p tcp -e 1080 -c 0 -i 5 -a 0 -x {0.0 2.0 -1 ------- null}
r -t 0.8502688 -s 0 -d 1 -p tcp -e 1080 -c 0 -i 6 -a 0 -x {0.0 2.0 4 ------- null}
+ -t 0.8502688 -s 1 -d 2 -p tcp -e 1080 -c 0 -i 6 -a 0 -x {0.0 2.0 4 ------- null}
r -t 0.886496 -s 1 -d 0 -p ack -e 40 -c 0 -i 7 -a 0 -x {2.0 0.0 2 ------- null}
+ -t 0.886496 -s 0 -d 1 -p tcp -e 1080 -c 0 -i 8 -a 0 -x {0.0 2.0 5 ------- null}
- -t 0.886496 -s 0 -d 1 -p tcp -e 1080 -c 0 -i 8 -a 0 -x {0.0 2.0 5 ------- null}
h -t 0.886496 -s 0 -d 1 -p tcp -e 1080 -c 0 -i 8 -a 0 -x {0.0 2.0 -1 ------- null}
+ -t 0.886496 -s 0 -d 1 -p tcp -e 1080 -c 0 -i 9 -a 0 -x {0.0 2.0 6 ------- null}
- -t 0.8865824 -s 0 -d 1 -p tcp -e 1080 -c 0 -i 9 -a 0 -x {0.0 2.0 6 ------- null}
h -t 0.8865824 -s 0 -d 1 -p tcp -e 1080 -c 0 -i 9 -a 0 -x {0.0 2.0 -1 ------- null}
- -t 0.9365824 -s 1 -d 2 -p tcp -e 1080 -c 0 -i 6 -a 0 -x {0.0 2.0 4 ------- null}
h -t 0.9365824 -s 1 -d 2 -p tcp -e 1080 -c 0 -i 6 -a 0 -x {0.0 2.0 -1 ------- null}
r -t 0.9365824 -s 0 -d 1 -p tcp -e 1080 -c 0 -i 8 -a 0 -x {0.0 2.0 5 ------- null}
+ -t 0.9365824 -s 1 -d 2 -p tcp -e 1080 -c 0 -i 8 -a 0 -x {0.0 2.0 5 ------- null}
r -t 0.9366688 -s 0 -d 1 -p tcp -e 1080 -c 0 -i 9 -a 0 -x {0.0 2.0 6 ------- null}
+ -t 0.9366688 -s 1 -d 2 -p tcp -e 1080 -c 0 -i 9 -a 0 -x {0.0 2.0 6 ------- null}
r -t 0.9375824 -s 1 -d 2 -p tcp -e 1080 -c 0 -i 5 -a 0 -x {0.0 2.0 3 ------- null}
+ -t 0.9375824 -s 2 -d 1 -p ack -e 40 -c 0 -i 10 -a 0 -x {2.0 0.0 3 ------- null}
- -t 0.9375824 -s 2 -d 1 -p ack -e 40 -c 0 -i 10 -a 0 -x {2.0 0.0 3 ------- null}
h -t 0.9375824 -s 2 -d 1 -p ack -e 40 -c 0 -i 10 -a 0 -x {2.0 0.0 -1 ------- null}
r -t 0.9417824 -s 2 -d 1 -p ack -e 40 -c 0 -i 10 -a 0 -x {2.0 0.0 3 ------- null}
+ -t 0.9417824 -s 1 -d 0 -p ack -e 40 -c 0 -i 10 -a 0 -x {2.0 0.0 3 ------- null}
- -t 0.9417824 -s 1 -d 0 -p ack -e 40 -c 0 -i 10 -a 0 -x {2.0 0.0 3 ------- null}
h -t 0.9417824 -s 1 -d 0 -p ack -e 40 -c 0 -i 10 -a 0 -x {2.0 0.0 -1 ------- null}
r -t 0.9917856 -s 1 -d 0 -p ack -e 40 -c 0 -i 10 -a 0 -x {2.0 0.0 3 ------- null}
+ -t 0.9917856 -s 0 -d 1 -p tcp -e 1080 -c 0 -i 11 -a 0 -x {0.0 2.0 7 ------- null}
- -t 0.9917856 -s 0 -d 1 -p tcp -e 1080 -c 0 -i 11 -a 0 -x {0.0 2.0 7 ------- null}
h -t 0.9917856 -s 0 -d 1 -p tcp -e 1080 -c 0 -i 11 -a 0 -x {0.0 2.0 -1 ------- null}
+ -t 0.9917856 -s 0 -d 1 -p tcp -e 1080 -c 0 -i 12 -a 0 -x {0.0 2.0 8 ------- null}
- -t 0.991872 -s 0 -d 1 -p tcp -e 1080 -c 0 -i 12 -a 0 -x {0.0 2.0 8 ------- null}
h -t 0.991872 -s 0 -d 1 -p tcp -e 1080 -c 0 -i 12 -a 0 -x {0.0 2.0 -1 ------- null}
- -t 1.0229824 -s 1 -d 2 -p tcp -e 1080 -c 0 -i 8 -a 0 -x {0.0 2.0 5 ------- null}
h -t 1.0229824 -s 1 -d 2 -p tcp -e 1080 -c 0 -i 8 -a 0 -x {0.0 2.0 -1 ------- null}
r -t 1.0239824 -s 1 -d 2 -p tcp -e 1080 -c 0 -i 6 -a 0 -x {0.0 2.0 4 ------- null}
+ -t 1.0239824 -s 2 -d 1 -p ack -e 40 -c 0 -i 13 -a 0 -x {2.0 0.0 4 ------- null}
- -t 1.0239824 -s 2 -d 1 -p ack -e 40 -c 0 -i 13 -a 0 -x {2.0 0.0 4 ------- null}
h -t 1.0239824 -s 2 -d 1 -p ack -e 40 -c 0 -i 13 -a 0 -x {2.0 0.0 -1 ------- null}
r -t 1.0281824 -s 2 -d 1 -p ack -e 40 -c 0 -i 13 -a 0 -x {2.0 0.0 4 ------- null}
+ -t 1.0281824 -s 1 -d 0 -p ack -e 40 -c 0 -i 13 -a 0 -x {2.0 0.0 4 ------- null}
- -t 1.0281824 -s 1 -d 0 -p ack -e 40 -c 0 -i 13 -a 0 -x {2.0 0.0 4 ------- null}
h -t 1.0281824 -s 1 -d 0 -p ack -e 40 -c 0 -i 13 -a 0 -x {2.0 0.0 -1 ------- null}
r -t 1.041872 -s 0 -d 1 -p tcp -e 1080 -c 0 -i 11 -a 0 -x {0.0 2.0 7 ------- null}
+ -t 1.041872 -s 1 -d 2 -p tcp -e 1080 -c 0 -i 11 -a 0 -x {0.0 2.0 7 ------- null}
r -t 1.0419584 -s 0 -d 1 -p tcp -e 1080 -c 0 -i 12 -a 0 -x {0.0 2.0 8 ------- null}
+ -t 1.0419584 -s 1 -d 2 -p tcp -e 1080 -c 0 -i 12 -a 0 -x {0.0 2.0 8 ------- null}
r -t 1.0781856 -s 1 -d 0 -p ack -e 40 -c 0 -i 13 -a 0 -x {2.0 0.0 4 ------- null}
+ -t 1.0781856 -s 0 -d 1 -p tcp -e 1080 -c 0 -i 14 -a 0 -x {0.0 2.0 9 ------- null}
- -t 1.0781856 -s 0 -d 1 -p tcp -e 1080 -c 0 -i 14 -a 0 -x {0.0 2.0 9 ------- null}
h -t 1.0781856 -s 0 -d 1 -p tcp -e 1080 -c 0 -i 14 -a 0 -x {0.0 2.0 -1 ------- null}
+ -t 1.0781856 -s 0 -d 1 -p tcp -e 1080 -c 0 -i 15 -a 0 -x {0.0 2.0 10 ------- null}
- -t 1.078272 -s 0 -d 1 -p tcp -e 1080 -c 0 -i 15 -a 0 -x {0.0 2.0 10 ------- null}
h -t 1.078272 -s 0 -d 1 -p tcp -e 1080 -c 0 -i 15 -a 0 -x {0.0 2.0 -1 ------- null}
- -t 1.1093824 -s 1 -d 2 -p tcp -e 1080 -c 0 -i 9 -a 0 -x {0.0 2.0 6 ------- null}
h -t 1.1093824 -s 1 -d 2 -p tcp -e 1080 -c 0 -i 9 -a 0 -x {0.0 2.0 -1 ------- null}
r -t 1.1103824 -s 1 -d 2 -p tcp -e 1080 -c 0 -i 8 -a 0 -x {0.0 2.0 5 ------- null}
+ -t 1.1103824 -s 2 -d 1 -p ack -e 40 -c 0 -i 16 -a 0 -x {2.0 0.0 5 ------- null}
- -t 1.1103824 -s 2 -d 1 -p ack -e 40 -c 0 -i 16 -a 0 -x {2.0 0.0 5 ------- null}
h -t 1.1103824 -s 2 -d 1 -p ack -e 40 -c 0 -i 16 -a 0 -x {2.0 0.0 -1 ------- null}
r -t 1.1145824 -s 2 -d 1 -p ack -e 40 -c 0 -i 16 -a 0 -x {2.0 0.0 5 ------- null}
+ -t 1.1145824 -s 1 -d 0 -p ack -e 40 -c 0 -i 16 -a 0 -x {2.0 0.0 5 ------- null}
- -t 1.1145824 -s 1 -d 0 -p ack -e 40 -c 0 -i 16 -a 0 -x {2.0 0.0 5 ------- null}
h -t 1.1145824 -s 1 -d 0 -p ack -e 40 -c 0 -i 16 -a 0 -x {2.0 0.0 -1 ------- null}
r -t 1.128272 -s 0 -d 1 -p tcp -e 1080 -c 0 -i 14 -a 0 -x {0.0 2.0 9 ------- null}
+ -t 1.128272 -s 1 -d 2 -p tcp -e 1080 -c 0 -i 14 -a 0 -x {0.0 2.0 9 ------- null}
r -t 1.1283584 -s 0 -d 1 -p tcp -e 1080 -c 0 -i 15 -a 0 -x {0.0 2.0 10 ------- null}
+ -t 1.1283584 -s 1 -d 2 -p tcp -e 1080 -c 0 -i 15 -a 0 -x {0.0 2.0 10 ------- null}
r -t 1.1645856 -s 1 -d 0 -p ack -e 40 -c 0 -i 16 -a 0 -x {2.0 0.0 5 ------- null}
+ -t 1.1645856 -s 0 -d 1 -p tcp -e 1080 -c 0 -i 17 -a 0 -x {0.0 2.0 11 ------- null}
- -t 1.1645856 -s 0 -d 1 -p tcp -e 1080 -c 0 -i 17 -a 0 -x {0.0 2.0 11 ------- null}
h -t 1.1645856 -s 0 -d 1 -p tcp -e 1080 -c 0 -i 17 -a 0 -x {0.0 2.0 -1 ------- null}
+ -t 1.1645856 -s 0 -d 1 -p tcp -e 1080 -c 0 -i 18 -a 0 -x {0.0 2.0 12 ------- null}
- -t 1.164672 -s 0 -d 1 -p tcp -e 1080 -c 0 -i 18 -a 0 -x {0.0 2.0 12 ------- null}
h -t 1.164672 -s 0 -d 1 -p tcp -e 1080 -c 0 -i 18 -a 0 -x {0.0 2.0 -1 ------- null}
- -t 1.1957824 -s 1 -d 2 -p tcp -e 1080 -c 0 -i 11 -a 0 -x {0.0 2.0 7 ------- null}
h -t 1.1957824 -s 1 -d 2 -p tcp -e 1080 -c 0 -i 11 -a 0 -x {0.0 2.0 -1 ------- null}
r -t 1.1967824 -s 1 -d 2 -p tcp -e 1080 -c 0 -i 9 -a 0 -x {0.0 2.0 6 ------- null}
+ -t 1.1967824 -s 2 -d 1 -p ack -e 40 -c 0 -i 19 -a 0 -x {2.0 0.0 6 ------- null}
- -t 1.1967824 -s 2 -d 1 -p ack -e 40 -c 0 -i 19 -a 0 -x {2.0 0.0 6 ------- null}
h -t 1.1967824 -s 2 -d 1 -p ack -e 40 -c 0 -i 19 -a 0 -x {2.0 0.0 -1 ------- null}
r -t 1.2009824 -s 2 -d 1 -p ack -e 40 -c 0 -i 19 -a 0 -x {2.0 0.0 6 ------- null}
+ -t 1.2009824 -s 1 -d 0 -p ack -e 40 -c 0 -i 19 -a 0 -x {2.0 0.0 6 ------- null}
- -t 1.2009824 -s 1 -d 0 -p ack -e 40 -c 0 -i 19 -a 0 -x {2.0 0.0 6 ------- null}
h -t 1.2009824 -s 1 -d 0 -p ack -e 40 -c 0 -i 19 -a 0 -x {2.0 0.0 -1 ------- null}
r -t 1.214672 -s 0 -d 1 -p tcp -e 1080 -c 0 -i 17 -a 0 -x {0.0 2.0 11 ------- null}
+ -t 1.214672 -s 1 -d 2 -p tcp -e 1080 -c 0 -i 17 -a 0 -x {0.0 2.0 11 ------- null}
r -t 1.2147584 -s 0 -d 1 -p tcp -e 1080 -c 0 -i 18 -a 0 -x {0.0 2.0 12 ------- null}
+ -t 1.2147584 -s 1 -d 2 -p tcp -e 1080 -c 0 -i 18 -a 0 -x {0.0 2.0 12 ------- null}
r -t 1.2509856 -s 1 -d 0 -p ack -e 40 -c 0 -i 19 -a 0 -x {2.0 0.0 6 ------- null}
+ -t 1.2509856 -s 0 -d 1 -p tcp -e 1080 -c 0 -i 20 -a 0 -x {0.0 2.0 13 ------- null}
- -t 1.2509856 -s 0 -d 1 -p tcp -e 1080 -c 0 -i 20 -a 0 -x {0.0 2.0 13 ------- null}
h -t 1.2509856 -s 0 -d 1 -p tcp -e 1080 -c 0 -i 20 -a 0 -x {0.0 2.0 -1 ------- null}
+ -t 1.2509856 -s 0 -d 1 -p tcp -e 1080 -c 0 -i 21 -a 0 -x {0.0 2.0 14 ------- null}
- -t 1.251072 -s 0 -d 1 -p tcp -e 1080 -c 0 -i 21 -a 0 -x {0.0 2.0 14 ------- null}
h -t 1.251072 -s 0 -d 1 -p tcp -e 1080 -c 0 -i 21 -a 0 -x {0.0 2.0 -1 ------- null}
- -t 1.2821824 -s 1 -d 2 -p tcp -e 1080 -c 0 -i 12 -a 0 -x {0.0 2.0 8 ------- null}
h -t 1.2821824 -s 1 -d 2 -p tcp -e 1080 -c 0 -i 12 -a 0 -x {0.0 2.0 -1 ------- null}
r -t 1.2831824 -s 1 -d 2 -p tcp -e 1080 -c 0 -i 11 -a 0 -x {0.0 2.0 7 ------- null}
+ -t 1.2831824 -s 2 -d 1 -p ack -e 40 -c 0 -i 22 -a 0 -x {2.0 0.0 7 ------- null}
- -t 1.2831824 -s 2 -d 1 -p ack -e 40 -c 0 -i 22 -a 0 -x {2.0 0.0 7 ------- null}
h -t 1.2831824 -s 2 -d 1 -p ack -e 40 -c 0 -i 22 -a 0 -x {2.0 0.0 -1 ------- null}
r -t 1.2873824 -s 2 -d 1 -p ack -e 40 -c 0 -i 22 -a 0 -x {2.0 0.0 7 ------- null}
+ -t 1.2873824 -s 1 -d 0 -p ack -e 40 -c 0 -i 22 -a 0 -x {2.0 0.0 7 ------- null}
- -t 1.2873824 -s 1 -d 0 -p ack -e 40 -c 0 -i 22 -a 0 -x {2.0 0.0 7 ------- null}
h -t 1.2873824 -s 1 -d 0 -p ack -e 40 -c 0 -i 22 -a 0 -x {2.0 0.0 -1 ------- null}
r -t 1.301072 -s 0 -d 1 -p tcp -e 1080 -c 0 -i 20 -a 0 -x {0.0 2.0 13 ------- null}
+ -t 1.301072 -s 1 -d 2 -p tcp -e 1080 -c 0 -i 20 -a 0 -x {0.0 2.0 13 ------- null}
r -t 1.3011584 -s 0 -d 1 -p tcp -e 1080 -c 0 -i 21 -a 0 -x {0.0 2.0 14 ------- null}
+ -t 1.3011584 -s 1 -d 2 -p tcp -e 1080 -c 0 -i 21 -a 0 -x {0.0 2.0 14 ------- null}
r -t 1.3373856 -s 1 -d 0 -p ack -e 40 -c 0 -i 22 -a 0 -x {2.0 0.0 7 ------- null}
+ -t 1.3373856 -s 0 -d 1 -p tcp -e 1080 -c 0 -i 23 -a 0 -x {0.0 2.0 15 ------- null}
- -t 1.3373856 -s 0 -d 1 -p tcp -e 1080 -c 0 -i 23 -a 0 -x {0.0 2.0 15 ------- null}
h -t 1.3373856 -s 0 -d 1 -p tcp -e 1080 -c 0 -i 23 -a 0 -x {0.0 2.0 -1 ------- null}
+ -t 1.3373856 -s 0 -d 1 -p tcp -e 1080 -c 0 -i 24 -a 0 -x {0.0 2.0 16 ------- null}
- -t 1.337472 -s 0 -d 1 -p tcp -e 1080 -c 0 -i 24 -a 0 -x {0.0 2.0 16 ------- null}
h -t 1.337472 -s 0 -d 1 -p tcp -e 1080 -c 0 -i 24 -a 0 -x {0.0 2.0 -1 ------- null}
- -t 1.3685824 -s 1 -d 2 -p tcp -e 1080 -c 0 -i 14 -a 0 -x {0.0 2.0 9 ------- null}
h -t 1.3685824 -s 1 -d 2 -p tcp -e 1080 -c 0 -i 14 -a 0 -x {0.0 2.0 -1 ------- null}
r -t 1.3695824 -s 1 -d 2 -p tcp -e 1080 -c 0 -i 12 -a 0 -x {0.0 2.0 8 ------- null}
+ -t 1.3695824 -s 2 -d 1 -p ack -e 40 -c 0 -i 25 -a 0 -x {2.0 0.0 8 ------- null}
- -t 1.3695824 -s 2 -d 1 -p ack -e 40 -c 0 -i 25 -a 0 -x {2.0 0.0 8 ------- null}
h -t 1.3695824 -s 2 -d 1 -p ack -e 40 -c 0 -i 25 -a 0 -x {2.0 0.0 -1 ------- null}
r -t 1.3737824 -s 2 -d 1 -p ack -e 40 -c 0 -i 25 -a 0 -x {2.0 0.0 8 ------- null}
+ -t 1.3737824 -s 1 -d 0 -p ack -e 40 -c 0 -i 25 -a 0 -x {2.0 0.0 8 ------- null}
- -t 1.3737824 -s 1 -d 0 -p ack -e 40 -c 0 -i 25 -a 0 -x {2.0 0.0 8 ------- null}
h -t 1.3737824 -s 1 -d 0 -p ack -e 40 -c 0 -i 25 -a 0 -x {2.0 0.0 -1 ------- null}
r -t 1.387472 -s 0 -d 1 -p tcp -e 1080 -c 0 -i 23 -a 0 -x {0.0 2.0 15 ------- null}
+ -t 1.387472 -s 1 -d 2 -p tcp -e 1080 -c 0 -i 23 -a 0 -x {0.0 2.0 15 ------- null}
r -t 1.3875584 -s 0 -d 1 -p tcp -e 1080 -c 0 -i 24 -a 0 -x {0.0 2.0 16 ------- null}
+ -t 1.3875584 -s 1 -d 2 -p tcp -e 1080 -c 0 -i 24 -a 0 -x {0.0 2.0 16 ------- null}
r -t 1.4237856 -s 1 -d 0 -p ack -e 40 -c 0 -i 25 -a 0 -x {2.0 0.0 8 ------- null}
+ -t 1.4237856 -s 0 -d 1 -p tcp -e 1080 -c 0 -i 26 -a 0 -x {0.0 2.0 17 ------- null}
- -t 1.4237856 -s 0 -d 1 -p tcp -e 1080 -c 0 -i 26 -a 0 -x {0.0 2.0 17 ------- null}
h -t 1.4237856 -s 0 -d 1 -p tcp -e 1080 -c 0 -i 26 -a 0 -x {0.0 2.0 -1 ------- null}
+ -t 1.4237856 -s 0 -d 1 -p tcp -e 1080 -c 0 -i 27 -a 0 -x {0.0 2.0 18 ------- null}
- -t 1.423872 -s 0 -d 1 -p tcp -e 1080 -c 0 -i 27 -a 0 -x {0.0 2.0 18 ------- null}
h -t 1.423872 -s 0 -d 1 -p tcp -e 1080 -c 0 -i 27 -a 0 -x {0.0 2.0 -1 ------- null}
- -t 1.4549824 -s 1 -d 2 -p tcp -e 1080 -c 0 -i 15 -a 0 -x {0.0 2.0 10 ------- null}
h -t 1.4549824 -s 1 -d 2 -p tcp -e 1080 -c 0 -i 15 -a 0 -x {0.0 2.0 -1 ------- null}
r -t 1.4559824 -s 1 -d 2 -p tcp -e 1080 -c 0 -i 14 -a 0 -x {0.0 2.0 9 ------- null}
+ -t 1.4559824 -s 2 -d 1 -p ack -e 40 -c 0 -i 28 -a 0 -x {2.0 0.0 9 ------- null}
- -t 1.4559824 -s 2 -d 1 -p ack -e 40 -c 0 -i 28 -a 0 -x {2.0 0.0 9 ------- null}
h -t 1.4559824 -s 2 -d 1 -p ack -e 40 -c 0 -i 28 -a 0 -x {2.0 0.0 -1 ------- null}
r -t 1.4601824 -s 2 -d 1 -p ack -e 40 -c 0 -i 28 -a 0 -x {2.0 0.0 9 ------- null}
+ -t 1.4601824 -s 1 -d 0 -p ack -e 40 -c 0 -i 28 -a 0 -x {2.0 0.0 9 ------- null}
- -t 1.4601824 -s 1 -d 0 -p ack -e 40 -c 0 -i 28 -a 0 -x {2.0 0.0 9 ------- null}
h -t 1.4601824 -s 1 -d 0 -p ack -e 40 -c 0 -i 28 -a 0 -x {2.0 0.0 -1 ------- null}
r -t 1.473872 -s 0 -d 1 -p tcp -e 1080 -c 0 -i 26 -a 0 -x {0.0 2.0 17 ------- null}
+ -t 1.473872 -s 1 -d 2 -p tcp -e 1080 -c 0 -i 26 -a 0 -x {0.0 2.0 17 ------- null}
r -t 1.4739584 -s 0 -d 1 -p tcp -e 1080 -c 0 -i 27 -a 0 -x {0.0 2.0 18 ------- null}
+ -t 1.4739584 -s 1 -d 2 -p tcp -e 1080 -c 0 -i 27 -a 0 -x {0.0 2.0 18 ------- null}
r -t 1.5101856 -s 1 -d 0 -p ack -e 40 -c 0 -i 28 -a 0 -x {2.0 0.0 9 ------- null}
+ -t 1.5101856 -s 0 -d 1 -p tcp -e 1080 -c 0 -i 29 -a 0 -x {0.0 2.0 19 ------- null}
- -t 1.5101856 -s 0 -d 1 -p tcp -e 1080 -c 0 -i 29 -a 0 -x {0.0 2.0 19 ------- null}
h -t 1.5101856 -s 0 -d 1 -p tcp -e 1080 -c 0 -i 29 -a 0 -x {0.0 2.0 -1 ------- null}
+ -t 1.5101856 -s 0 -d 1 -p tcp -e 1080 -c 0 -i 30 -a 0 -x {0.0 2.0 20 ------- null}
- -t 1.510272 -s 0 -d 1 -p tcp -e 1080 -c 0 -i 30 -a 0 -x {0.0 2.0 20 ------- null}
h -t 1.510272 -s 0 -d 1 -p tcp -e 1080 -c 0 -i 30 -a 0 -x {0.0 2.0 -1 ------- null}
- -t 1.5413824 -s 1 -d 2 -p tcp -e 1080 -c 0 -i 17 -a 0 -x {0.0 2.0 11 ------- null}
h -t 1.5413824 -s 1 -d 2 -p tcp -e 1080 -c 0 -i 17 -a 0 -x {0.0 2.0 -1 ------- null}
r -t 1.5423824 -s 1 -d 2 -p tcp -e 1080 -c 0 -i 15 -a 0 -x {0.0 2.0 10 ------- null}
+ -t 1.5423824 -s 2 -d 1 -p ack -e 40 -c 0 -i 31 -a 0 -x {2.0 0.0 10 ------- null}
- -t 1.5423824 -s 2 -d 1 -p ack -e 40 -c 0 -i 31 -a 0 -x {2.0 0.0 10 ------- null}
h -t 1.5423824 -s 2 -d 1 -p ack -e 40 -c 0 -i 31 -a 0 -x {2.0 0.0 -1 ------- null}
r -t 1.5465824 -s 2 -d 1 -p ack -e 40 -c 0 -i 31 -a 0 -x {2.0 0.0 10 ------- null}
+ -t 1.5465824 -s 1 -d 0 -p ack -e 40 -c 0 -i 31 -a 0 -x {2.0 0.0 10 ------- null}
- -t 1.5465824 -s 1 -d 0 -p ack -e 40 -c 0 -i 31 -a 0 -x {2.0 0.0 10 ------- null}
h -t 1.5465824 -s 1 -d 0 -p ack -e 40 -c 0 -i 31 -a 0 -x {2.0 0.0 -1 ------- null}
r -t 1.560272 -s 0 -d 1 -p tcp -e 1080 -c 0 -i 29 -a 0 -x {0.0 2.0 19 ------- null}
+ -t 1.560272 -s 1 -d 2 -p tcp -e 1080 -c 0 -i 29 -a 0 -x {0.0 2.0 19 ------- null}
r -t 1.5603584 -s 0 -d 1 -p tcp -e 1080 -c 0 -i 30 -a 0 -x {0.0 2.0 20 ------- null}
+ -t 1.5603584 -s 1 -d 2 -p tcp -e 1080 -c 0 -i 30 -a 0 -x {0.0 2.0 20 ------- null}
r -t 1.5965856 -s 1 -d 0 -p ack -e 40 -c 0 -i 31 -a 0 -x {2.0 0.0 10 ------- null}
+ -t 1.5965856 -s 0 -d 1 -p tcp -e 1080 -c 0 -i 32 -a 0 -x {0.0 2.0 21 ------- null}
- -t 1.5965856 -s 0 -d 1 -p tcp -e 1080 -c 0 -i 32 -a 0 -x {0.0 2.0 21 ------- null}
h -t 1.5965856 -s 0 -d 1 -p tcp -e 1080 -c 0 -i 32 -a 0 -x {0.0 2.0 -1 ------- null}
+ -t 1.5965856 -s 0 -d 1 -p tcp -e 1080 -c 0 -i 33 -a 0 -x {0.0 2.0 22 ------- null}
- -t 1.596672 -s 0 -d 1 -p tcp -e 1080 -c 0 -i 33 -a 0 -x {0.0 2.0 22 ------- null}
h -t 1.596672 -s 0 -d 1 -p tcp -e 1080 -c 0 -i 33 -a 0 -x {0.0 2.0 -1 ------- null}
- -t 1.6277824 -s 1 -d 2 -p tcp -e 1080 -c 0 -i 18 -a 0 -x {0.0 2.0 12 ------- null}
h -t 1.6277824 -s 1 -d 2 -p tcp -e 1080 -c 0 -i 18 -a 0 -x {0.0 2.0 -1 ------- null}
r -t 1.6287824 -s 1 -d 2 -p tcp -e 1080 -c 0 -i 17 -a 0 -x {0.0 2.0 11 ------- null}
+ -t 1.6287824 -s 2 -d 1 -p ack -e 40 -c 0 -i 34 -a 0 -x {2.0 0.0 11 ------- null}
- -t 1.6287824 -s 2 -d 1 -p ack -e 40 -c 0 -i 34 -a 0 -x {2.0 0.0 11 ------- null}
h -t 1.6287824 -s 2 -d 1 -p ack -e 40 -c 0 -i 34 -a 0 -x {2.0 0.0 -1 ------- null}
r -t 1.6329824 -s 2 -d 1 -p ack -e 40 -c 0 -i 34 -a 0 -x {2.0 0.0 11 ------- null}
+ -t 1.6329824 -s 1 -d 0 -p ack -e 40 -c 0 -i 34 -a 0 -x {2.0 0.0 11 ------- null}
- -t 1.6329824 -s 1 -d 0 -p ack -e 40 -c 0 -i 34 -a 0 -x {2.0 0.0 11 ------- null}
h -t 1.6329824 -s 1 -d 0 -p ack -e 40 -c 0 -i 34 -a 0 -x {2.0 0.0 -1 ------- null}
r -t 1.646672 -s 0 -d 1 -p tcp -e 1080 -c 0 -i 32 -a 0 -x {0.0 2.0 21 ------- null}
+ -t 1.646672 -s 1 -d 2 -p tcp -e 1080 -c 0 -i 32 -a 0 -x {0.0 2.0 21 ------- null}
r -t 1.6467584 -s 0 -d 1 -p tcp -e 1080 -c 0 -i 33 -a 0 -x {0.0 2.0 22 ------- null}
+ -t 1.6467584 -s 1 -d 2 -p tcp -e 1080 -c 0 -i 33 -a 0 -x {0.0 2.0 22 ------- null}
r -t 1.6829856 -s 1 -d 0 -p ack -e 40 -c 0 -i 34 -a 0 -x {2.0 0.0 11 ------- null}
+ -t 1.6829856 -s 0 -d 1 -p tcp -e 1080 -c 0 -i 35 -a 0 -x {0.0 2.0 23 ------- null}
- -t 1.6829856 -s 0 -d 1 -p tcp -e 1080 -c 0 -i 35 -a 0 -x {0.0 2.0 23 ------- null}
h -t 1.6829856 -s 0 -d 1 -p tcp -e 1080 -c 0 -i 35 -a 0 -x {0.0 2.0 -1 ------- null}
+ -t 1.6829856 -s 0 -d 1 -p tcp -e 1080 -c 0 -i 36 -a 0 -x {0.0 2.0 24 ------- null}
- -t 1.683072 -s 0 -d 1 -p tcp -e 1080 -c 0 -i 36 -a 0 -x {0.0 2.0 24 ------- null}
h -t 1.683072 -s 0 -d 1 -p tcp -e 1080 -c 0 -i 36 -a 0 -x {0.0 2.0 -1 ------- null}
- -t 1.7141824 -s 1 -d 2 -p tcp -e 1080 -c 0 -i 20 -a 0 -x {0.0 2.0 13 ------- null}
h -t 1.7141824 -s 1 -d 2 -p tcp -e 1080 -c 0 -i 20 -a 0 -x {0.0 2.0 -1 ------- null}
r -t 1.7151824 -s 1 -d 2 -p tcp -e 1080 -c 0 -i 18 -a 0 -x {0.0 2.0 12 ------- null}
+ -t 1.7151824 -s 2 -d 1 -p ack -e 40 -c 0 -i 37 -a 0 -x {2.0 0.0 12 ------- null}
- -t 1.7151824 -s 2 -d 1 -p ack -e 40 -c 0 -i 37 -a 0 -x {2.0 0.0 12 ------- null}
h -t 1.7151824 -s 2 -d 1 -p ack -e 40 -c 0 -i 37 -a 0 -x {2.0 0.0 -1 ------- null}
r -t 1.7193824 -s 2 -d 1 -p ack -e 40 -c 0 -i 37 -a 0 -x {2.0 0.0 12 ------- null}
+ -t 1.7193824 -s 1 -d 0 -p ack -e 40 -c 0 -i 37 -a 0 -x {2.0 0.0 12 ------- null}
- -t 1.7193824 -s 1 -d 0 -p ack -e 40 -c 0 -i 37 -a 0 -x {2.0 0.0 12 ------- null}
h -t 1.7193824 -s 1 -d 0 -p ack -e 40 -c 0 -i 37 -a 0 -x {2.0 0.0 -1 ------- null}
r -t 1.733072 -s 0 -d 1 -p tcp -e 1080 -c 0 -i 35 -a 0 -x {0.0 2.0 23 ------- null}
+ -t 1.733072 -s 1 -d 2 -p tcp -e 1080 -c 0 -i 35 -a 0 -x {0.0 2.0 23 ------- null}
r -t 1.7331584 -s 0 -d 1 -p tcp -e 1080 -c 0 -i 36 -a 0 -x {0.0 2.0 24 ------- null}
+ -t 1.7331584 -s 1 -d 2 -p tcp -e 1080 -c 0 -i 36 -a 0 -x {0.0 2.0 24 ------- null}
r -t 1.7693856 -s 1 -d 0 -p ack -e 40 -c 0 -i 37 -a 0 -x {2.0 0.0 12 ------- null}
+ -t 1.7693856 -s 0 -d 1 -p tcp -e 1080 -c 0 -i 38 -a 0 -x {0.0 2.0 25 ------- null}
- -t 1.7693856 -s 0 -d 1 -p tcp -e 1080 -c 0 -i 38 -a 0 -x {0.0 2.0 25 ------- null}
h -t 1.7693856 -s 0 -d 1 -p tcp -e 1080 -c 0 -i 38 -a 0 -x {0.0 2.0 -1 ------- null}
+ -t 1.7693856 -s 0 -d 1 -p tcp -e 1080 -c 0 -i 39 -a 0 -x {0.0 2.0 26 ------- null}
- -t 1.769472 -s 0 -d 1 -p tcp -e 1080 -c 0 -i 39 -a 0 -x {0.0 2.0 26 ------- null}
h -t 1.769472 -s 0 -d 1 -p tcp -e 1080 -c 0 -i 39 -a 0 -x {0.0 2.0 -1 ------- null}
- -t 1.8005824 -s 1 -d 2 -p tcp -e 1080 -c 0 -i 21 -a 0 -x {0.0 2.0 14 ------- null}
h -t 1.8005824 -s 1 -d 2 -p tcp -e 1080 -c 0 -i 21 -a 0 -x {0.0 2.0 -1 ------- null}
r -t 1.8015824 -s 1 -d 2 -p tcp -e 1080 -c 0 -i 20 -a 0 -x {0.0 2.0 13 ------- null}
+ -t 1.8015824 -s 2 -d 1 -p ack -e 40 -c 0 -i 40 -a 0 -x {2.0 0.0 13 ------- null}
- -t 1.8015824 -s 2 -d 1 -p ack -e 40 -c 0 -i 40 -a 0 -x {2.0 0.0 13 ------- null}
h -t 1.8015824 -s 2 -d 1 -p ack -e 40 -c 0 -i 40 -a 0 -x {2.0 0.0 -1 ------- null}
r -t 1.8057824 -s 2 -d 1 -p ack -e 40 -c 0 -i 40 -a 0 -x {2.0 0.0 13 ------- null}
+ -t 1.8057824 -s 1 -d 0 -p ack -e 40 -c 0 -i 40 -a 0 -x {2.0 0.0 13 ------- null}
- -t 1.8057824 -s 1 -d 0 -p ack -e 40 -c 0 -i 40 -a 0 -x {2.0 0.0 13 ------- null}
h -t 1.8057824 -s 1 -d 0 -p ack -e 40 -c 0 -i 40 -a 0 -x {2.0 0.0 -1 ------- null}
r -t 1.819472 -s 0 -d 1 -p tcp -e 1080 -c 0 -i 38 -a 0 -x {0.0 2.0 25 ------- null}
+ -t 1.819472 -s 1 -d 2 -p tcp -e 1080 -c 0 -i 38 -a 0 -x {0.0 2.0 25 ------- null}
r -t 1.8195584 -s 0 -d 1 -p tcp -e 1080 -c 0 -i 39 -a 0 -x {0.0 2.0 26 ------- null}
+ -t 1.8195584 -s 1 -d 2 -p tcp -e 1080 -c 0 -i 39 -a 0 -x {0.0 2.0 26 ------- null}
r -t 1.8557856 -s 1 -d 0 -p ack -e 40 -c 0 -i 40 -a 0 -x {2.0 0.0 13 ------- null}
+ -t 1.8557856 -s 0 -d 1 -p tcp -e 1080 -c 0 -i 41 -a 0 -x {0.0 2.0 27 ------- null}
- -t 1.8557856 -s 0 -d 1 -p tcp -e 1080 -c 0 -i 41 -a 0 -x {0.0 2.0 27 ------- null}
h -t 1.8557856 -s 0 -d 1 -p tcp -e 1080 -c 0 -i 41 -a 0 -x {0.0 2.0 -1 ------- null}
+ -t 1.8557856 -s 0 -d 1 -p tcp -e 1080 -c 0 -i 42 -a 0 -x {0.0 2.0 28 ------- null}
- -t 1.855872 -s 0 -d 1 -p tcp -e 1080 -c 0 -i 42 -a 0 -x {0.0 2.0 28 ------- null}
h -t 1.855872 -s 0 -d 1 -p tcp -e 1080 -c 0 -i 42 -a 0 -x {0.0 2.0 -1 ------- null}
- -t 1.8869824 -s 1 -d 2 -p tcp -e 1080 -c 0 -i 23 -a 0 -x {0.0 2.0 15 ------- null}
h -t 1.8869824 -s 1 -d 2 -p tcp -e 1080 -c 0 -i 23 -a 0 -x {0.0 2.0 -1 ------- null}
r -t 1.8879824 -s 1 -d 2 -p tcp -e 1080 -c 0 -i 21 -a 0 -x {0.0 2.0 14 ------- null}
+ -t 1.8879824 -s 2 -d 1 -p ack -e 40 -c 0 -i 43 -a 0 -x {2.0 0.0 14 ------- null}
- -t 1.8879824 -s 2 -d 1 -p ack -e 40 -c 0 -i 43 -a 0 -x {2.0 0.0 14 ------- null}
h -t 1.8879824 -s 2 -d 1 -p ack -e 40 -c 0 -i 43 -a 0 -x {2.0 0.0 -1 ------- null}
r -t 1.8921824 -s 2 -d 1 -p ack -e 40 -c 0 -i 43 -a 0 -x {2.0 0.0 14 ------- null}
+ -t 1.8921824 -s 1 -d 0 -p ack -e 40 -c 0 -i 43 -a 0 -x {2.0 0.0 14 ------- null}
- -t 1.8921824 -s 1 -d 0 -p ack -e 40 -c 0 -i 43 -a 0 -x {2.0 0.0 14 ------- null}
h -t 1.8921824 -s 1 -d 0 -p ack -e 40 -c 0 -i 43 -a 0 -x {2.0 0.0 -1 ------- null}
r -t 1.905872 -s 0 -d 1 -p tcp -e 1080 -c 0 -i 41 -a 0 -x {0.0 2.0 27 ------- null}
+ -t 1.905872 -s 1 -d 2 -p tcp -e 1080 -c 0 -i 41 -a 0 -x {0.0 2.0 27 ------- null}
r -t 1.9059584 -s 0 -d 1 -p tcp -e 1080 -c 0 -i 42 -a 0 -x {0.0 2.0 28 ------- null}
+ -t 1.9059584 -s 1 -d 2 -p tcp -e 1080 -c 0 -i 42 -a 0 -x {0.0 2.0 28 ------- null}
r -t 1.9421856 -s 1 -d 0 -p ack -e 40 -c 0 -i 43 -a 0 -x {2.0 0.0 14 ------- null}
+ -t 1.9421856 -s 0 -d 1 -p tcp -e 1080 -c 0 -i 44 -a 0 -x {0.0 2.0 29 ------- null}
- -t 1.9421856 -s 0 -d 1 -p tcp -e 1080 -c 0 -i 44 -a 0 -x {0.0 2.0 29 ------- null}
h -t 1.9421856 -s 0 -d 1 -p tcp -e 1080 -c 0 -i 44 -a 0 -x {0.0 2.0 -1 ------- null}
+ -t 1.9421856 -s 0 -d 1 -p tcp -e 1080 -c 0 -i 45 -a 0 -x {0.0 2.0 30 ------- null}
- -t 1.942272 -s 0 -d 1 -p tcp -e 1080 -c 0 -i 45 -a 0 -x {0.0 2.0 30 ------- null}
h -t 1.942272 -s 0 -d 1 -p tcp -e 1080 -c 0 -i 45 -a 0 -x {0.0 2.0 -1 ------- null}
- -t 1.9733824 -s 1 -d 2 -p tcp -e 1080 -c 0 -i 24 -a 0 -x {0.0 2.0 16 ------- null}
h -t 1.9733824 -s 1 -d 2 -p tcp -e 1080 -c 0 -i 24 -a 0 -x {0.0 2.0 -1 ------- null}
r -t 1.9743824 -s 1 -d 2 -p tcp -e 1080 -c 0 -i 23 -a 0 -x {0.0 2.0 15 ------- null}
+ -t 1.9743824 -s 2 -d 1 -p ack -e 40 -c 0 -i 46 -a 0 -x {2.0 0.0 15 ------- null}
- -t 1.9743824 -s 2 -d 1 -p ack -e 40 -c 0 -i 46 -a 0 -x {2.0 0.0 15 ------- null}
h -t 1.9743824 -s 2 -d 1 -p ack -e 40 -c 0 -i 46 -a 0 -x {2.0 0.0 -1 ------- null}
r -t 1.9785824 -s 2 -d 1 -p ack -e 40 -c 0 -i 46 -a 0 -x {2.0 0.0 15 ------- null}
+ -t 1.9785824 -s 1 -d 0 -p ack -e 40 -c 0 -i 46 -a 0 -x {2.0 0.0 15 ------- null}
- -t 1.9785824 -s 1 -d 0 -p ack -e 40 -c 0 -i 46 -a 0 -x {2.0 0.0 15 ------- null}
h -t 1.9785824 -s 1 -d 0 -p ack -e 40 -c 0 -i 46 -a 0 -x {2.0 0.0 -1 ------- null}
r -t 1.992272 -s 0 -d 1 -p tcp -e 1080 -c 0 -i 44 -a 0 -x {0.0 2.0 29 ------- null}
+ -t 1.992272 -s 1 -d 2 -p tcp -e 1080 -c 0 -i 44 -a 0 -x {0.0 2.0 29 ------- null}
r -t 1.9923584 -s 0 -d 1 -p tcp -e 1080 -c 0 -i 45 -a 0 -x {0.0 2.0 30 ------- null}
+ -t 1.9923584 -s 1 -d 2 -p tcp -e 1080 -c 0 -i 45 -a 0 -x {0.0 2.0 30 ------- null}
r -t 2.0285856 -s 1 -d 0 -p ack -e 40 -c 0 -i 46 -a 0 -x {2.0 0.0 15 ------- null}
+ -t 2.0285856 -s 0 -d 1 -p tcp -e 1080 -c 0 -i 47 -a 0 -x {0.0 2.0 31 ------- null}
- -t 2.0285856 -s 0 -d 1 -p tcp -e 1080 -c 0 -i 47 -a 0 -x {0.0 2.0 31 ------- null}
h -t 2.0285856 -s 0 -d 1 -p tcp -e 1080 -c 0 -i 47 -a 0 -x {0.0 2.0 -1 ------- null}
+ -t 2.0285856 -s 0 -d 1 -p tcp -e 1080 -c 0 -i 48 -a 0 -x {0.0 2.0 32 ------- null}
- -t 2.028672 -s 0 -d 1 -p tcp -e 1080 -c 0 -i 48 -a 0 -x {0.0 2.0 32 ------- null}
h -t 2.028672 -s 0 -d 1 -p tcp -e 1080 -c 0 -i 48 -a 0 -x {0.0 2.0 -1 ------- null}
- -t 2.0597824 -s 1 -d 2 -p tcp -e 1080 -c 0 -i 26 -a 0 -x {0.0 2.0 17 ------- null}
h -t 2.0597824 -s 1 -d 2 -p tcp -e 1080 -c 0 -i 26 -a 0 -x {0.0 2.0 -1 ------- null}
r -t 2.0607824 -s 1 -d 2 -p tcp -e 1080 -c 0 -i 24 -a 0 -x {0.0 2.0 16 ------- null}
+ -t 2.0607824 -s 2 -d 1 -p ack -e 40 -c 0 -i 49 -a 0 -x {2.0 0.0 16 ------- null}
- -t 2.0607824 -s 2 -d 1 -p ack -e 40 -c 0 -i 49 -a 0 -x {2.0 0.0 16 ------- null}
h -t 2.0607824 -s 2 -d 1 -p ack -e 40 -c 0 -i 49 -a 0 -x {2.0 0.0 -1 ------- null}
r -t 2.0649824 -s 2 -d 1 -p ack -e 40 -c 0 -i 49 -a 0 -x {2.0 0.0 16 ------- null}
+ -t 2.0649824 -s 1 -d 0 -p ack -e 40 -c 0 -i 49 -a 0 -x {2.0 0.0 16 ------- null}
- -t 2.0649824 -s 1 -d 0 -p ack -e 40 -c 0 -i 49 -a 0 -x {2.0 0.0 16 ------- null}
h -t 2.0649824 -s 1 -d 0 -p ack -e 40 -c 0 -i 49 -a 0 -x {2.0 0.0 -1 ------- null}
r -t 2.078672 -s 0 -d 1 -p tcp -e 1080 -c 0 -i 47 -a 0 -x {0.0 2.0 31 ------- null}
+ -t 2.078672 -s 1 -d 2 -p tcp -e 1080 -c 0 -i 47 -a 0 -x {0.0 2.0 31 ------- null}
r -t 2.0787584 -s 0 -d 1 -p tcp -e 1080 -c 0 -i 48 -a 0 -x {0.0 2.0 32 ------- null}
+ -t 2.0787584 -s 1 -d 2 -p tcp -e 1080 -c 0 -i 48 -a 0 -x {0.0 2.0 32 ------- null}
r -t 2.1149856 -s 1 -d 0 -p ack -e 40 -c 0 -i 49 -a 0 -x {2.0 0.0 16 ------- null}
+ -t 2.1149856 -s 0 -d 1 -p tcp -e 1080 -c 0 -i 50 -a 0 -x {0.0 2.0 33 ------- null}